                         Program Version 5.0.4 -  RELEASE  -
|  1> ! B3LYP def2-SVP Opt PAL8 FREQ
|  2> *xyz 0 1
|  3>   C   -1.773068    3.538284   -0.051505
|  4>   C   -0.575736    4.154721    0.001449
|  5>   C    0.574936    3.475963    0.043362
|  6>   C    0.561481    2.137066    0.033551
|  7>   C    1.723034    1.471892    0.075990
|  8>   C    1.735355    0.134562    0.067427
|  9>   C    0.603840   -0.597554    0.016682
| 10>   C    0.612508   -1.960851    0.007859
| 11>   C   -0.585138   -2.576792   -0.045439
| 12>   C   -1.735598   -1.897769   -0.087951
| 13>   C   -1.721823   -0.558922   -0.078080
| 14>   C   -2.883391    0.106211   -0.121078
| 15>   C   -2.895694    1.443521   -0.112116
| 16>   C   -1.764061    2.175156   -0.060648
| 17>   C   -0.604179    1.467370   -0.018372
| 18>   C   -0.555982    0.110420   -0.025775
| 19>   C   -2.899805    4.293032   -0.091794
| 20>   C    1.739156   -2.715955    0.049263
| 21>   C   -3.034393    5.635978   -0.088926
| 22>   C    1.868254   -4.058331    0.045003
| 23>   N    2.942894   -4.746372    0.084628
| 24>   C    2.784774   -6.223530    0.069041
| 25>   C    4.260872   -4.072764    0.141304
| 26>   N   -4.136353    6.237433   -0.128885
| 27>   O   -4.174687    7.551628   -0.122765
| 28>   O   -5.305249    5.640805   -0.178272
| 29>   H   -0.455017    5.247697    0.014143
| 30>   H    1.524373    4.038041    0.085790
| 31>   H    2.685309    2.012227    0.118521
| 32>   H    2.747899   -0.290574    0.105311
| 33>   H   -0.707302   -3.669599   -0.057631
| 34>   H   -2.685173   -2.459645   -0.130599
| 35>   H   -3.845650   -0.434095   -0.164440
| 36>   H   -3.907712    1.869764   -0.150679
| 37>   H   -3.870833    3.782872   -0.133675
| 38>   H    2.703322   -2.199605    0.093480
| 39>   H   -2.144458    6.282183   -0.049691
| 40>   H    0.979275   -4.702192    0.002950
| 41>   H    2.164991   -6.572032    0.926934
| 42>   H    2.326970   -6.563318   -0.888302
| 43>   H    3.772426   -6.728035    0.158227
| 44>   H    5.081260   -4.824099    0.163075
| 45>   H    4.434746   -3.446408   -0.763152
| 46>   H    4.365414   -3.466242    1.069629
| 47> *
| 48>
| 49>                          ****END OF INPUT****
 Total Charge           Charge          ....    0
 Multiplicity           Mult            ....    1
 Number of Electrons    NEL             ....  180
FINAL SINGLE POINT ENERGY     -1107.413224756090
FINAL SINGLE POINT ENERGY     -1107.514505152120
FINAL SINGLE POINT ENERGY     -1107.566461727410
FINAL SINGLE POINT ENERGY     -1107.581029456761
FINAL SINGLE POINT ENERGY     -1107.582684473569
FINAL SINGLE POINT ENERGY     -1107.583188701568
FINAL SINGLE POINT ENERGY     -1107.583307765748
FINAL SINGLE POINT ENERGY     -1107.583335031993
FINAL SINGLE POINT ENERGY     -1107.583356092468
FINAL SINGLE POINT ENERGY     -1107.583411318502
FINAL SINGLE POINT ENERGY     -1107.584001435901
FINAL SINGLE POINT ENERGY     -1107.584560957598
FINAL SINGLE POINT ENERGY     -1107.584939134063
FINAL SINGLE POINT ENERGY     -1107.585073956556
FINAL SINGLE POINT ENERGY     -1107.585108053206
FINAL SINGLE POINT ENERGY     -1107.585117603083
FINAL SINGLE POINT ENERGY     -1107.585123934071
FINAL SINGLE POINT ENERGY     -1107.585126352491
FINAL SINGLE POINT ENERGY     -1107.585129413893
                    ***********************HURRAY********************

CARTESIAN COORDINATES (ANGSTROEM)
---------------------------------
  C     -1.787433    3.717463   -0.063191
  C     -0.529691    4.361386   -0.025939
  C      0.655084    3.651330    0.016014
  C      0.649835    2.239631    0.022619
  C      1.862240    1.483132    0.070896
  C      1.849320    0.116175    0.075661
  C      0.627694   -0.636333    0.030067
  C      0.605150   -2.072624    0.030315
  C     -0.661685   -2.704458    0.001341
  C     -1.846991   -1.992121   -0.032743
  C     -1.852374   -0.582980   -0.041878
  C     -3.063884    0.172983   -0.082290
  C     -3.058619    1.540034   -0.090558
  C     -1.831050    2.284528   -0.057904
  C     -0.597677    1.542711   -0.015702
  C     -0.603225    0.106242   -0.009686
  C     -3.012094    4.500751   -0.106288
  C      1.839217   -2.849758    0.048881
  C     -3.126773    5.844306   -0.091090
  C      1.921282   -4.209556    0.138200
  N      3.062550   -4.959961    0.212785
  C      3.005978   -6.390811   -0.015448
  C      4.360763   -4.323826    0.147598
  N     -4.435596    6.469575   -0.140948
  O     -4.442056    7.696132   -0.113648
  O     -5.439379    5.769181   -0.205860
  H     -0.487919    5.452329   -0.032074
  H      1.611317    4.180291    0.044305
  H      2.812103    2.023459    0.107814
  H      2.803491   -0.407832    0.122319
  H     -0.718795   -3.794535   -0.002900
  H     -2.801177   -2.526251   -0.057963
  H     -4.014259   -0.367903   -0.106924
  H     -4.012560    2.065267   -0.121360
  H     -3.968808    3.978491   -0.157143
  H      2.773364   -2.295459   -0.015889
  H     -2.332424    6.585680   -0.040213
  H      1.011163   -4.814418    0.178666
  H      1.997716   -6.766436    0.212456
  H      3.242043   -6.665295   -1.063446
  H      3.720358   -6.915565    0.640423
  H      5.141993   -5.054634    0.400839
  H      4.582740   -3.913245   -0.857917
  H      4.420854   -3.494935    0.871646

 Multiplicity           Mult            ....    1
 Number of Electrons    NEL             ....  180
 Basis Dimension        Dim             ....  454

ORBITAL ENERGIES
----------------

  NO   OCC          E(Eh)            E(eV)
   0   2.0000     -19.135922      -520.7149
   1   2.0000     -19.135677      -520.7083
   2   2.0000     -14.534439      -395.5022
   3   2.0000     -14.372209      -391.0877
   4   2.0000     -10.242527      -278.7133
   5   2.0000     -10.238076      -278.5922
   6   2.0000     -10.237922      -278.5880
   7   2.0000     -10.226366      -278.2736
   8   2.0000     -10.215901      -277.9888
   9   2.0000     -10.210861      -277.8517
  10   2.0000     -10.210281      -277.8359
  11   2.0000     -10.207979      -277.7732
  12   2.0000     -10.205507      -277.7060
  13   2.0000     -10.204481      -277.6780
  14   2.0000     -10.201920      -277.6083
  15   2.0000     -10.201553      -277.5984
  16   2.0000     -10.200023      -277.5567
  17   2.0000     -10.198777      -277.5228
  18   2.0000     -10.196663      -277.4653
  19   2.0000     -10.196420      -277.4587
  20   2.0000     -10.195522      -277.4343
  21   2.0000     -10.195447      -277.4322
  22   2.0000     -10.195303      -277.4283
  23   2.0000     -10.192591      -277.3545
  24   2.0000     -10.192435      -277.3503
  25   2.0000     -10.183252      -277.1004
  26   2.0000      -1.194566       -32.5058
  27   2.0000      -1.019994       -27.7554
  28   2.0000      -0.962579       -26.1931
  29   2.0000      -0.889713       -24.2103
  30   2.0000      -0.855684       -23.2843
  31   2.0000      -0.830970       -22.6118
  32   2.0000      -0.823139       -22.3987
  33   2.0000      -0.798836       -21.7374
  34   2.0000      -0.779316       -21.2063
  35   2.0000      -0.760275       -20.6881
  36   2.0000      -0.744025       -20.2459
  37   2.0000      -0.739175       -20.1140
  38   2.0000      -0.729398       -19.8479
  39   2.0000      -0.721455       -19.6318
  40   2.0000      -0.682350       -18.5677
  41   2.0000      -0.665701       -18.1147
  42   2.0000      -0.632951       -17.2235
  43   2.0000      -0.621826       -16.9208
  44   2.0000      -0.617624       -16.8064
  45   2.0000      -0.602759       -16.4019
  46   2.0000      -0.573200       -15.5976
  47   2.0000      -0.561699       -15.2846
  48   2.0000      -0.537275       -14.6200
  49   2.0000      -0.532486       -14.4897
  50   2.0000      -0.530479       -14.4351
  51   2.0000      -0.519785       -14.1441
  52   2.0000      -0.515190       -14.0190
  53   2.0000      -0.514567       -14.0021
  54   2.0000      -0.505329       -13.7507
  55   2.0000      -0.498300       -13.5594
  56   2.0000      -0.485769       -13.2184
  57   2.0000      -0.482602       -13.1323
  58   2.0000      -0.473561       -12.8863
  59   2.0000      -0.466532       -12.6950
  60   2.0000      -0.451016       -12.2728
  61   2.0000      -0.444574       -12.0975
  62   2.0000      -0.439224       -11.9519
  63   2.0000      -0.428833       -11.6691
  64   2.0000      -0.422586       -11.4991
  65   2.0000      -0.419391       -11.4122
  66   2.0000      -0.416302       -11.3282
  67   2.0000      -0.414665       -11.2836
  68   2.0000      -0.405833       -11.0433
  69   2.0000      -0.403506       -10.9799
  70   2.0000      -0.401731       -10.9317
  71   2.0000      -0.396865       -10.7993
  72   2.0000      -0.384600       -10.4655
  73   2.0000      -0.381280       -10.3751
  74   2.0000      -0.380547       -10.3552
  75   2.0000      -0.356474        -9.7001
  76   2.0000      -0.352073        -9.5804
  77   2.0000      -0.344120        -9.3640
  78   2.0000      -0.337706        -9.1894
  79   2.0000      -0.324908        -8.8412
  80   2.0000      -0.318518        -8.6673
  81   2.0000      -0.296650        -8.0722
  82   2.0000      -0.287913        -7.8345
  83   2.0000      -0.287633        -7.8269
  84   2.0000      -0.276038        -7.5114
  85   2.0000      -0.269440        -7.3318
  86   2.0000      -0.262000        -7.1294
  87   2.0000      -0.241263        -6.5651
  88   2.0000      -0.225222        -6.1286
  89   2.0000      -0.183383        -4.9901
  90   0.0000      -0.093302        -2.5389
  91   0.0000      -0.054645        -1.4870
  92   0.0000      -0.037916        -1.0318
  93   0.0000      -0.018287        -0.4976
  94   0.0000      -0.005270        -0.1434

MULLIKEN ATOMIC CHARGES
-----------------------
   0 C :    0.072523
   1 C :   -0.022598
   2 C :   -0.032822
   3 C :    0.074123
   4 C :   -0.017273
   5 C :   -0.028547
   6 C :    0.052555
   7 C :    0.109714
   8 C :   -0.046552
   9 C :   -0.022474
  10 C :    0.057878
  11 C :   -0.004809
  12 C :   -0.046931
  13 C :    0.082326
  14 C :    0.052089
  15 C :    0.069049
  16 C :    0.040082
  17 C :   -0.088883
  18 C :    0.056943
  19 C :    0.114608
  20 N :   -0.286391
  21 C :    0.120672
  22 C :    0.130860
  23 N :    0.233029
  24 O :   -0.266849
  25 O :   -0.262582
  26 H :   -0.024692
  27 H :   -0.031921
  28 H :   -0.034542
  29 H :   -0.038954
  30 H :   -0.040862
  31 H :   -0.033654
  32 H :   -0.030155
  33 H :   -0.028828
  34 H :    0.013418
  35 H :   -0.039426
  36 H :    0.001317
  37 H :   -0.009578
  38 H :    0.029578
  39 H :    0.024307
  40 H :    0.026842
  41 H :    0.020228
  42 H :    0.022753
  43 H :    0.034428
Sum of atomic charges:    0.0000000

LOEWDIN ATOMIC CHARGES
----------------------
   0 C :   -0.041988
   1 C :   -0.003120
   2 C :   -0.025868
   3 C :   -0.003630
   4 C :   -0.024654
   5 C :   -0.006164
   6 C :   -0.024638
   7 C :    0.005227
   8 C :   -0.031534
   9 C :   -0.008361
  10 C :   -0.032089
  11 C :   -0.003637
  12 C :   -0.030516
  13 C :    0.006409
  14 C :    0.001092
  15 C :    0.005163
  16 C :    0.025425
  17 C :   -0.121577
  18 C :   -0.032616
  19 C :    0.042148
  20 N :   -0.039535
  21 C :    0.036181
  22 C :    0.031202
  23 N :    0.272341
  24 O :   -0.225916
  25 O :   -0.233549
  26 H :    0.028661
  27 H :    0.027909
  28 H :    0.027125
  29 H :    0.025384
  30 H :    0.021587
  31 H :    0.027442
  32 H :    0.029351
  33 H :    0.029319
  34 H :    0.037493
  35 H :    0.018062
  36 H :    0.026916
  37 H :    0.021284
  38 H :    0.028465
  39 H :    0.016833
  40 H :    0.023688
  41 H :    0.027655
  42 H :    0.018908
  43 H :    0.028123

  Mayer bond orders larger than 0.100000
B(  0-C ,  1-C ) :   1.2939 B(  0-C , 13-C ) :   1.2410 B(  0-C , 16-C ) :   1.1183
B(  1-C ,  2-C ) :   1.4105 B(  1-C , 26-H ) :   0.9783 B(  2-C ,  3-C ) :   1.2555
B(  2-C , 27-H ) :   0.9881 B(  3-C ,  4-C ) :   1.1724 B(  3-C , 14-C ) :   1.2417
B(  4-C ,  5-C ) :   1.5252 B(  4-C , 28-H ) :   0.9838 B(  5-C ,  6-C ) :   1.1772
B(  5-C , 29-H ) :   0.9781 B(  6-C ,  7-C ) :   1.2448 B(  6-C , 15-C ) :   1.2329
B(  7-C ,  8-C ) :   1.2926 B(  7-C , 17-C ) :   1.1458 B(  8-C ,  9-C ) :   1.4128
B(  8-C , 30-H ) :   0.9747 B(  9-C , 10-C ) :   1.2602 B(  9-C , 31-H ) :   0.9850
B( 10-C , 11-C ) :   1.1691 B( 10-C , 15-C ) :   1.2442 B( 11-C , 12-C ) :   1.5240
B( 11-C , 32-H ) :   0.9835 B( 12-C , 13-C ) :   1.1811 B( 12-C , 33-H ) :   0.9796
B( 13-C , 14-C ) :   1.2333 B( 14-C , 15-C ) :   1.2273 B( 16-C , 18-C ) :   1.6270
B( 16-C , 34-H ) :   0.9450 B( 17-C , 19-C ) :   1.5998 B( 17-C , 35-H ) :   0.9538
B( 18-C , 23-N ) :   0.9483 B( 18-C , 36-H ) :   0.9833 B( 19-C , 20-N ) :   1.2035
B( 19-C , 37-H ) :   0.9503 B( 20-N , 21-C ) :   0.9996 B( 20-N , 22-C ) :   1.0116
B( 21-C , 38-H ) :   0.9689 B( 21-C , 39-H ) :   0.9633 B( 21-C , 40-H ) :   0.9692
B( 22-C , 41-H ) :   0.9654 B( 22-C , 42-H ) :   0.9598 B( 22-C , 43-H ) :   0.9597
B( 23-N , 24-O ) :   1.4877 B( 23-N , 25-O ) :   1.5136 B( 24-O , 25-O ) :   0.2688

FINAL SINGLE POINT ENERGY     -1107.585131214998

DIPOLE MOMENT
-------------
                                X             Y             Z
Electronic contribution:    -22.18987      31.17853      -0.27247
Nuclear contribution   :     25.36068     -35.12456       0.33795
                        -----------------------------------------
Total Dipole Moment    :      3.17081      -3.94602       0.06548
                        -----------------------------------------
Magnitude (a.u.)       :      5.06255
Magnitude (Debye)      :     12.86798

VIBRATIONAL FREQUENCIES
-----------------------

Scaling factor for frequencies =  1.000000000  (already applied!)

   0:         0.00 cm**-1
   1:         0.00 cm**-1
   2:         0.00 cm**-1
   3:         0.00 cm**-1
   4:         0.00 cm**-1
   5:         0.00 cm**-1
   6:       -27.78 cm**-1 ***imaginary mode***
   7:        18.94 cm**-1
   8:        28.38 cm**-1
   9:        54.49 cm**-1
  10:        56.57 cm**-1
  11:        87.78 cm**-1
  12:        95.02 cm**-1
  13:       105.54 cm**-1
  14:       122.34 cm**-1
  15:       136.95 cm**-1
  16:       169.38 cm**-1
  17:       185.44 cm**-1
  18:       196.51 cm**-1
  19:       208.32 cm**-1
  20:       220.24 cm**-1
  21:       234.71 cm**-1
  22:       261.97 cm**-1
  23:       265.71 cm**-1
  24:       279.75 cm**-1
  25:       289.19 cm**-1
  26:       327.88 cm**-1
  27:       389.32 cm**-1
  28:       404.33 cm**-1
  29:       419.55 cm**-1
  30:       449.49 cm**-1
  31:       451.79 cm**-1
  32:       495.00 cm**-1
  33:       505.92 cm**-1
  34:       524.54 cm**-1
  35:       526.94 cm**-1
  36:       560.38 cm**-1
  37:       564.86 cm**-1
  38:       569.86 cm**-1
  39:       580.56 cm**-1
  40:       601.63 cm**-1
  41:       629.34 cm**-1
  42:       667.62 cm**-1
  43:       701.29 cm**-1
  44:       716.74 cm**-1
  45:       733.49 cm**-1
  46:       741.10 cm**-1
  47:       760.16 cm**-1
  48:       774.77 cm**-1
  49:       795.98 cm**-1
  50:       814.27 cm**-1
  51:       820.22 cm**-1
  52:       825.60 cm**-1
  53:       845.85 cm**-1
  54:       858.80 cm**-1
  55:       869.64 cm**-1
  56:       881.07 cm**-1
  57:       888.31 cm**-1
  58:       899.28 cm**-1
  59:       944.58 cm**-1
  60:       957.36 cm**-1
  61:       991.04 cm**-1
  62:       991.73 cm**-1
  63:       993.70 cm**-1
  64:      1000.25 cm**-1
  65:      1008.56 cm**-1
  66:      1013.39 cm**-1
  67:      1014.45 cm**-1
  68:      1016.95 cm**-1
  69:      1082.59 cm**-1
  70:      1108.23 cm**-1
  71:      1113.57 cm**-1
  72:      1127.88 cm**-1
  73:      1133.38 cm**-1
  74:      1151.72 cm**-1
  75:      1180.93 cm**-1
  76:      1189.61 cm**-1
  77:      1204.42 cm**-1
  78:      1212.83 cm**-1
  79:      1233.72 cm**-1
  80:      1249.00 cm**-1
  81:      1261.23 cm**-1
  82:      1267.08 cm**-1
  83:      1278.12 cm**-1
  84:      1283.29 cm**-1
  85:      1320.41 cm**-1
  86:      1331.62 cm**-1
  87:      1344.28 cm**-1
  88:      1371.11 cm**-1
  89:      1382.90 cm**-1
  90:      1394.09 cm**-1
  91:      1403.03 cm**-1
  92:      1405.16 cm**-1
  93:      1418.89 cm**-1
  94:      1427.06 cm**-1
  95:      1436.34 cm**-1
  96:      1444.70 cm**-1
  97:      1452.24 cm**-1
  98:      1456.77 cm**-1
  99:      1460.62 cm**-1
 100:      1468.37 cm**-1
 101:      1486.23 cm**-1
 102:      1504.46 cm**-1
 103:      1508.98 cm**-1
 104:      1535.49 cm**-1
 105:      1549.86 cm**-1
 106:      1571.48 cm**-1
 107:      1619.47 cm**-1
 108:      1624.31 cm**-1
 109:      1642.88 cm**-1
 110:      1657.86 cm**-1
 111:      1664.32 cm**-1
 112:      1691.02 cm**-1
 113:      1692.93 cm**-1
 114:      2975.97 cm**-1
 115:      2982.77 cm**-1
 116:      3066.38 cm**-1
 117:      3070.49 cm**-1
 118:      3126.64 cm**-1
 119:      3129.14 cm**-1
 120:      3168.67 cm**-1
 121:      3173.03 cm**-1
 122:      3173.63 cm**-1
 123:      3177.19 cm**-1
 124:      3177.44 cm**-1
 125:      3195.68 cm**-1
 126:      3197.87 cm**-1
 127:      3205.92 cm**-1
 128:      3209.93 cm**-1
 129:      3223.90 cm**-1
 130:      3229.71 cm**-1
 131:      3253.79 cm**-1

IR SPECTRUM
-----------

 Mode   freq       eps      Int      T**2         TX        TY        TZ
       cm**-1   L/(mol*cm) km/mol    a.u.
----------------------------------------------------------------------------
  7:     18.94   0.000002    0.01  0.000030  ( 0.002204 -0.002084 -0.004613)
  8:     28.38   0.000015    0.07  0.000162  ( 0.004804 -0.003840 -0.011125)
  9:     54.49   0.000449    2.27  0.002569  (-0.005457  0.009616 -0.049467)
 10:     56.57   0.000028    0.14  0.000152  (-0.007373 -0.009721 -0.001878)
 11:     87.78   0.000365    1.85  0.001298  (-0.014134 -0.033130 -0.000733)
 12:     95.02   0.000298    1.51  0.000979  (-0.014260  0.027020  0.006753)
 13:    105.54   0.004252   21.49  0.012572  (-0.055890  0.094965 -0.020734)
 14:    122.34   0.000451    2.28  0.001150  ( 0.007332 -0.016025  0.028975)
 15:    136.95   0.000720    3.64  0.001641  ( 0.015918 -0.027271 -0.025367)
 16:    169.38   0.000084    0.42  0.000154  ( 0.003147  0.003861 -0.011363)
 17:    185.44   0.000219    1.10  0.000368  (-0.007253  0.008666 -0.015500)
 18:    196.51   0.000005    0.03  0.000008  ( 0.002577  0.001026  0.000457)
 19:    208.32   0.000462    2.33  0.000692  (-0.022370  0.012037  0.006833)
 20:    220.24   0.001138    5.75  0.001612  ( 0.012400 -0.008125  0.037315)
 21:    234.71   0.000336    1.70  0.000446  ( 0.003788  0.017394 -0.011382)
 22:    261.97   0.000089    0.45  0.000106  (-0.003068  0.005961 -0.007818)
 23:    265.71   0.000350    1.77  0.000411  (-0.012061  0.016266 -0.000945)
 24:    279.75   0.000771    3.90  0.000860  ( 0.019065 -0.022286  0.000533)
 25:    289.19   0.000026    0.13  0.000028  (-0.000387 -0.003662  0.003799)
 26:    327.88   0.001632    8.25  0.001553  ( 0.016478 -0.031994  0.016062)
 27:    389.32   0.000524    2.65  0.000420  ( 0.009527 -0.017725 -0.003903)
 28:    404.33   0.000168    0.85  0.000130  ( 0.006440 -0.009377 -0.000618)
 29:    419.55   0.002374   12.00  0.001765  ( 0.022643 -0.035394  0.000035)
 30:    449.49   0.000824    4.16  0.000572  ( 0.017268 -0.016205  0.003325)
 31:    451.79   0.000049    0.25  0.000034  ( 0.000650 -0.002543  0.005221)
 32:    495.00   0.000249    1.26  0.000157  (-0.012420  0.000166 -0.001708)
 33:    505.92   0.000810    4.09  0.000500  (-0.009928  0.019924 -0.002044)
 34:    524.54   0.000268    1.36  0.000160  (-0.001289  0.012506 -0.001272)
 35:    526.94   0.000839    4.24  0.000497  ( 0.000319 -0.022263 -0.001168)
 36:    560.38   0.000581    2.93  0.000323  ( 0.002080 -0.006934  0.016460)
 37:    564.86   0.000209    1.06  0.000116  ( 0.008268 -0.002020  0.006565)
 38:    569.86   0.001040    5.25  0.000569  ( 0.002999 -0.007209  0.022549)
 39:    580.56   0.000973    4.92  0.000523  (-0.009374  0.020859  0.000542)
 40:    601.63   0.002190   11.07  0.001136  ( 0.018818 -0.027660  0.004120)
 41:    629.34   0.000267    1.35  0.000132  (-0.004427  0.010464 -0.001755)
 42:    667.62   0.000235    1.19  0.000110  (-0.004883  0.009111 -0.001751)
 43:    701.29   0.000477    2.41  0.000212  ( 0.011043 -0.009490  0.000451)
 44:    716.74   0.001291    6.53  0.000562  (-0.000767  0.000075  0.023699)
 45:    733.49   0.000499    2.52  0.000212  (-0.014569  0.000231  0.000251)
 46:    741.10   0.000162    0.82  0.000068  (-0.004117  0.005050  0.005083)
 47:    760.16   0.002443   12.35  0.001003  ( 0.003761 -0.001965 -0.031384)
 48:    774.77   0.002485   12.56  0.001001  ( 0.024419 -0.020060  0.001438)
 49:    795.98   0.001954    9.88  0.000766  ( 0.025338 -0.010534  0.003619)
 50:    814.27   0.000530    2.68  0.000203  ( 0.006647 -0.006903  0.010543)
 51:    820.22   0.003629   18.34  0.001381  (-0.006060  0.036647 -0.001035)
 52:    825.60   0.001726    8.72  0.000652  (-0.013506  0.021674  0.000424)
 53:    845.85   0.006398   32.33  0.002360  (-0.003859  0.007803 -0.047798)
 54:    858.80   0.000734    3.71  0.000267  ( 0.014591 -0.005929 -0.004301)
 55:    869.64   0.006811   34.42  0.002444  (-0.001447  0.004205 -0.049238)
 56:    881.07   0.002672   13.50  0.000946  (-0.000058 -0.001484  0.030726)
 57:    888.31   0.002932   14.82  0.001030  ( 0.002522 -0.000621 -0.031991)
 58:    899.28   0.005253   26.54  0.001823  ( 0.027960 -0.031993 -0.004171)
 59:    944.58   0.000893    4.51  0.000295  ( 0.000819 -0.000540 -0.017146)
 60:    957.36   0.007571   38.26  0.002468  (-0.018396  0.030884  0.034289)
 61:    991.04   0.021885  110.60  0.006891  (-0.043774  0.070388 -0.004528)
 62:    991.73   0.010034   50.71  0.003157  ( 0.029434 -0.047242 -0.007702)
 63:    993.70   0.000703    3.56  0.000221  ( 0.003930 -0.007548  0.012186)
 64:   1000.25   0.001530    7.73  0.000477  (-0.012841  0.017680 -0.000192)
 65:   1008.56   0.000900    4.55  0.000278  ( 0.001112 -0.002073  0.016517)
 66:   1013.39   0.020953  105.89  0.006452  (-0.043882  0.067227 -0.002643)
 67:   1014.45   0.001008    5.09  0.000310  ( 0.002105 -0.004212  0.016968)
 68:   1016.95   0.000817    4.13  0.000251  (-0.003786  0.004483  0.014706)
 69:   1082.59   0.003953   19.98  0.001139  (-0.032585  0.008337 -0.002863)
 70:   1108.23   0.046628  235.64  0.013130  (-0.051185  0.102499  0.002008)
 71:   1113.57   0.000523    2.64  0.000146  ( 0.010405 -0.004765  0.003940)
 72:   1127.88   0.025951  131.14  0.007180  (-0.047568  0.070095 -0.001999)
 73:   1133.38   0.001988   10.05  0.000548  (-0.016358  0.016706 -0.000914)
 74:   1151.72   0.019193   96.99  0.005200  (-0.040824  0.058900 -0.008045)
 75:   1180.93   0.000035    0.18  0.000009  ( 0.001101 -0.002840  0.000181)
 76:   1189.61   0.001427    7.21  0.000374  ( 0.016191 -0.010584  0.000494)
 77:   1204.42   0.013820   69.84  0.003581  ( 0.035981 -0.047801  0.001101)
 78:   1212.83   0.004806   24.29  0.001237  ( 0.009693  0.033803 -0.000054)
 79:   1233.72   0.003006   15.19  0.000760  (-0.014921  0.023176 -0.000726)
 80:   1249.00   0.022988  116.17  0.005744  (-0.014914  0.074298  0.000980)
 81:   1261.23   0.129646  655.18  0.032078  (-0.097904  0.149960 -0.002169)
 82:   1267.08   0.001560    7.88  0.000384  ( 0.008581 -0.017600 -0.000913)
 83:   1278.12   0.029542  149.29  0.007213  ( 0.052546 -0.066716  0.000941)
 84:   1283.29   0.007856   39.70  0.001910  ( 0.023583 -0.036758  0.001745)
 85:   1320.41   0.009733   49.18  0.002300  (-0.027967  0.038958 -0.000537)
 86:   1331.62   0.020275  102.46  0.004751  ( 0.039828 -0.056254  0.000726)
 87:   1344.28   0.012167   61.49  0.002825  (-0.025265  0.046721 -0.001816)
 88:   1371.11   0.002206   11.15  0.000502  (-0.008925  0.020548  0.000401)
 89:   1382.90   0.009884   49.95  0.002230  (-0.011279  0.045858  0.000466)
 90:   1394.09   0.261522  1321.63  0.058541  (-0.161174  0.180397 -0.004596)
 91:   1403.03   0.053769  271.73  0.011959  (-0.073487  0.080906 -0.003653)
 92:   1405.16   0.000307    1.55  0.000068  (-0.003942  0.007244  0.000431)
 93:   1418.89   0.011899   60.13  0.002617  ( 0.037423 -0.034878 -0.000124)
 94:   1427.06   0.018634   94.17  0.004075  (-0.025851  0.058362 -0.000630)
 95:   1436.34   0.020715  104.69  0.004501  (-0.034387  0.057557  0.002313)
 96:   1444.70   0.000080    0.40  0.000017  (-0.001435 -0.003900 -0.000091)
 97:   1452.24   0.001938    9.80  0.000417  (-0.002936 -0.005728  0.019368)
 98:   1456.77   0.002527   12.77  0.000541  ( 0.000583 -0.020460 -0.011062)
 99:   1460.62   0.012955   65.47  0.002768  (-0.033093  0.039769 -0.009542)
100:   1468.37   0.008143   41.15  0.001731  ( 0.032906 -0.025247  0.003232)
101:   1486.23   0.007434   37.57  0.001561  ( 0.012732 -0.036905  0.006069)
102:   1504.46   0.005180   26.18  0.001074  (-0.023114  0.023177  0.001751)
103:   1508.98   0.004490   22.69  0.000929  ( 0.028257 -0.011365 -0.000988)
104:   1535.49   0.000840    4.25  0.000171  ( 0.012715 -0.002991  0.000387)
105:   1549.86   0.008740   44.17  0.001760  (-0.011152  0.040439 -0.000397)
106:   1571.48   0.009370   47.35  0.001861  (-0.031301  0.029668 -0.000845)
107:   1619.47   0.001442    7.29  0.000278  (-0.005101  0.015863 -0.000402)
108:   1624.31   0.115149  581.92  0.022122  ( 0.118960 -0.089139  0.005034)
109:   1642.88   0.104570  528.46  0.019863  ( 0.050964 -0.131399 -0.000376)
110:   1657.86   0.005034   25.44  0.000948  ( 0.030755 -0.000894  0.000978)
111:   1664.32   0.078401  396.21  0.014700  (-0.034815  0.116139 -0.000358)
112:   1691.02   0.033567  169.63  0.006195  (-0.064233  0.045419 -0.002398)
113:   1692.93   0.148503  750.47  0.027374  (-0.070020  0.149902 -0.000731)
114:   2975.97   0.015049   76.05  0.001578  ( 0.002982  0.038803  0.007969)
115:   2982.77   0.046159  233.27  0.004829  (-0.045863  0.046981  0.022773)
116:   3066.38   0.009071   45.84  0.000923  ( 0.009417 -0.018477  0.022206)
117:   3070.49   0.004046   20.45  0.000411  (-0.010923  0.002143 -0.016951)
118:   3126.64   0.000887    4.48  0.000089  ( 0.006369  0.006878 -0.000819)
119:   3129.14   0.004799   24.25  0.000479  ( 0.017517 -0.013092  0.000566)
120:   3168.67   0.000867    4.38  0.000085  ( 0.009148 -0.001292 -0.000083)
121:   3173.03   0.003020   15.26  0.000297  (-0.017197 -0.001104 -0.000189)
122:   3173.63   0.000402    2.03  0.000040  (-0.006138 -0.001352 -0.000259)
123:   3177.19   0.000387    1.96  0.000038  ( 0.005866 -0.001603  0.001039)
124:   3177.44   0.001761    8.90  0.000173  (-0.013144 -0.000356 -0.000168)
125:   3195.68   0.005842   29.52  0.000570  ( 0.005361  0.023272 -0.000358)
126:   3197.87   0.002313   11.69  0.000226  (-0.005199 -0.014095 -0.000133)
127:   3205.92   0.000912    4.61  0.000089  (-0.008973 -0.002847 -0.000415)
128:   3209.93   0.000377    1.91  0.000037  ( 0.002004  0.005712  0.000232)
129:   3223.90   0.000513    2.59  0.000050  ( 0.006298 -0.003152  0.000109)
130:   3229.71   0.005389   27.24  0.000521  (-0.021032  0.008848 -0.000314)
131:   3253.79   0.003342   16.89  0.000320  (-0.009537  0.015149 -0.000166)

--------------------------
THERMOCHEMISTRY AT 298.15K
--------------------------

Temperature         ... 298.15 K
Pressure            ... 1.00 atm
Total Mass          ... 342.40 AMU

Throughout the following assumptions are being made:
  (1) The electronic state is orbitally nondegenerate
  (2) There are no thermally accessible electronically excited states
  (3) Hindered rotations indicated by low frequency modes are not
      treated as such but are treated as vibrations and this may
      cause some error
  (4) All equations used are the standard statistical mechanics
      equations for an ideal gas
  (5) All vibrations are strictly harmonic

freq.      18.94  E(vib)   ...       0.57
freq.      28.38  E(vib)   ...       0.55
freq.      54.49  E(vib)   ...       0.52
freq.      56.57  E(vib)   ...       0.52
freq.      87.78  E(vib)   ...       0.48
freq.      95.02  E(vib)   ...       0.47
freq.     105.54  E(vib)   ...       0.45
freq.     122.34  E(vib)   ...       0.43
freq.     136.95  E(vib)   ...       0.42
freq.     169.38  E(vib)   ...       0.38
freq.     185.44  E(vib)   ...       0.37
freq.     196.51  E(vib)   ...       0.36
freq.     208.32  E(vib)   ...       0.34
freq.     220.24  E(vib)   ...       0.33
freq.     234.71  E(vib)   ...       0.32
freq.     261.97  E(vib)   ...       0.29
freq.     265.71  E(vib)   ...       0.29
freq.     279.75  E(vib)   ...       0.28
freq.     289.19  E(vib)   ...       0.27
freq.     327.88  E(vib)   ...       0.24
freq.     389.32  E(vib)   ...       0.20
freq.     404.33  E(vib)   ...       0.19
freq.     419.55  E(vib)   ...       0.18
freq.     449.49  E(vib)   ...       0.17
freq.     451.79  E(vib)   ...       0.16
freq.     495.00  E(vib)   ...       0.14
freq.     505.92  E(vib)   ...       0.14
freq.     524.54  E(vib)   ...       0.13
freq.     526.94  E(vib)   ...       0.13
freq.     560.38  E(vib)   ...       0.11
freq.     564.86  E(vib)   ...       0.11
freq.     569.86  E(vib)   ...       0.11
freq.     580.56  E(vib)   ...       0.11
freq.     601.63  E(vib)   ...       0.10
freq.     629.34  E(vib)   ...       0.09
freq.     667.62  E(vib)   ...       0.08
freq.     701.29  E(vib)   ...       0.07
freq.     716.74  E(vib)   ...       0.07
freq.     733.49  E(vib)   ...       0.06
freq.     741.10  E(vib)   ...       0.06
freq.     760.16  E(vib)   ...       0.06
freq.     774.77  E(vib)   ...       0.05
freq.     795.98  E(vib)   ...       0.05
freq.     814.27  E(vib)   ...       0.05
freq.     820.22  E(vib)   ...       0.05
freq.     825.60  E(vib)   ...       0.04
freq.     845.85  E(vib)   ...       0.04
freq.     858.80  E(vib)   ...       0.04
freq.     869.64  E(vib)   ...       0.04
freq.     881.07  E(vib)   ...       0.04
freq.     888.31  E(vib)   ...       0.04
freq.     899.28  E(vib)   ...       0.03
freq.     944.58  E(vib)   ...       0.03
freq.     957.36  E(vib)   ...       0.03
freq.     991.04  E(vib)   ...       0.02
freq.     991.73  E(vib)   ...       0.02
freq.     993.70  E(vib)   ...       0.02
freq.    1000.25  E(vib)   ...       0.02
freq.    1008.56  E(vib)   ...       0.02
freq.    1013.39  E(vib)   ...       0.02
freq.    1014.45  E(vib)   ...       0.02
freq.    1016.95  E(vib)   ...       0.02
freq.    1082.59  E(vib)   ...       0.02
freq.    1108.23  E(vib)   ...       0.02
freq.    1113.57  E(vib)   ...       0.01
freq.    1127.88  E(vib)   ...       0.01
freq.    1133.38  E(vib)   ...       0.01
freq.    1151.72  E(vib)   ...       0.01
freq.    1180.93  E(vib)   ...       0.01
freq.    1189.61  E(vib)   ...       0.01
freq.    1204.42  E(vib)   ...       0.01
freq.    1212.83  E(vib)   ...       0.01
freq.    1233.72  E(vib)   ...       0.01
freq.    1249.00  E(vib)   ...       0.01
freq.    1261.23  E(vib)   ...       0.01
freq.    1267.08  E(vib)   ...       0.01
freq.    1278.12  E(vib)   ...       0.01
freq.    1283.29  E(vib)   ...       0.01
freq.    1320.41  E(vib)   ...       0.01
freq.    1331.62  E(vib)   ...       0.01
freq.    1344.28  E(vib)   ...       0.01
freq.    1371.11  E(vib)   ...       0.01
freq.    1382.90  E(vib)   ...       0.01
freq.    1394.09  E(vib)   ...       0.00
freq.    1403.03  E(vib)   ...       0.00
freq.    1405.16  E(vib)   ...       0.00
freq.    1418.89  E(vib)   ...       0.00
freq.    1427.06  E(vib)   ...       0.00
freq.    1436.34  E(vib)   ...       0.00
freq.    1444.70  E(vib)   ...       0.00
freq.    1452.24  E(vib)   ...       0.00
freq.    1456.77  E(vib)   ...       0.00
freq.    1460.62  E(vib)   ...       0.00
freq.    1468.37  E(vib)   ...       0.00
freq.    1486.23  E(vib)   ...       0.00
freq.    1504.46  E(vib)   ...       0.00
freq.    1508.98  E(vib)   ...       0.00
freq.    1535.49  E(vib)   ...       0.00
freq.    1549.86  E(vib)   ...       0.00
freq.    1571.48  E(vib)   ...       0.00
freq.    1619.47  E(vib)   ...       0.00
freq.    1624.31  E(vib)   ...       0.00
freq.    1642.88  E(vib)   ...       0.00
freq.    1657.86  E(vib)   ...       0.00
freq.    1664.32  E(vib)   ...       0.00
freq.    1691.02  E(vib)   ...       0.00
freq.    1692.93  E(vib)   ...       0.00
freq.    2975.97  E(vib)   ...       0.00
freq.    2982.77  E(vib)   ...       0.00
freq.    3066.38  E(vib)   ...       0.00
freq.    3070.49  E(vib)   ...       0.00
freq.    3126.64  E(vib)   ...       0.00
freq.    3129.14  E(vib)   ...       0.00
freq.    3168.67  E(vib)   ...       0.00
freq.    3173.03  E(vib)   ...       0.00
freq.    3173.63  E(vib)   ...       0.00
freq.    3177.19  E(vib)   ...       0.00
freq.    3177.44  E(vib)   ...       0.00
freq.    3195.68  E(vib)   ...       0.00
freq.    3197.87  E(vib)   ...       0.00
freq.    3205.92  E(vib)   ...       0.00
freq.    3209.93  E(vib)   ...       0.00
freq.    3223.90  E(vib)   ...       0.00
freq.    3229.71  E(vib)   ...       0.00
freq.    3253.79  E(vib)   ...       0.00

------------
INNER ENERGY
------------

The inner energy is: U= E(el) + E(ZPE) + E(vib) + E(rot) + E(trans)
    E(el)   - is the total energy from the electronic structure calculation
              = E(kin-el) + E(nuc-el) + E(el-el) + E(nuc-nuc)
    E(ZPE)  - the the zero temperature vibrational energy from the frequency calculation
    E(vib)  - the the finite temperature correction to E(ZPE) due to population
              of excited vibrational states
    E(rot)  - is the rotational thermal energy
    E(trans)- is the translational thermal energy

Summary of contributions to the inner energy U:
Electronic energy                ...  -1107.58513121 Eh
Zero point energy                ...      0.34998898 Eh     219.62 kcal/mol
Thermal vibrational correction   ...      0.01808209 Eh      11.35 kcal/mol
Thermal rotational correction    ...      0.00141627 Eh       0.89 kcal/mol

Rotational constants in cm-1:     0.023123     0.002461     0.002226

                             ****ORCA TERMINATED NORMALLY****
TOTAL RUN TIME: 0 days 1 hours 29 minutes 19 seconds 286 msec
