                         Program Version 5.0.4 -  RELEASE  -
|  1> ! B3LYP def2-SVP Opt PAL8 FREQ defgrid3 slowconv VeryTightSCF
|  2> *xyz 0 1
|  3>  C        -7.218676        3.479653       -0.232700
|  4>  C        -5.952967        4.104784       -0.196300
|  5>  C        -4.776393        3.379080       -0.141538
|  6>  C        -4.798248        1.969621       -0.114728
|  7>  C        -3.594932        1.198039       -0.034215
|  8>  C        -3.624868       -0.167198       -0.001982
|  9>  C        -4.861020       -0.897695       -0.057955
| 10>  C        -4.905811       -2.326876       -0.032756
| 11>  C        -6.168761       -2.954982       -0.079734
| 12>  C        -7.350347       -2.230292       -0.132815
| 13>  C        -7.337027       -0.823442       -0.160924
| 14>  C        -8.539310       -0.050962       -0.240555
| 15>  C        -8.514066        1.314043       -0.272320
| 16>  C        -7.278311        2.048773       -0.215745
| 17>  C        -6.056073        1.291685       -0.153130
| 18>  C        -6.081510       -0.143622       -0.125845
| 19>  C        -8.438194        4.283572       -0.264286
| 20>  C        -3.678058       -3.124029        0.026516
| 21>  C        -8.518562        5.627093       -0.552765
| 22>  C        -3.589837       -4.380282        0.509729
| 23>  C        -9.774263        6.309321       -0.521515
| 24>  O        -2.431290       -5.069104        0.479087
| 25>  C        -2.412569       -6.316188        1.146544
| 26>  N       -10.789664        6.882456       -0.505818
| 27>  H        -5.894751        5.195501       -0.178288
| 28>  H        -3.814880        3.897777       -0.100976
| 29>  H        -2.639132        1.727473        0.008178
| 30>  H        -2.684520       -0.713012        0.076662
| 31>  H        -6.218694       -4.045640       -0.109770
| 32>  H        -8.309304       -2.754302       -0.176589
| 33>  H        -9.496057       -0.579482       -0.281414
| 34>  H        -9.461440        1.846840       -0.351437
| 35>  H        -9.395898        3.755876       -0.020511
| 36>  H        -2.746483       -2.688042       -0.341622
| 37>  H        -7.624008        6.257036       -0.841456
| 38>  H        -4.446474       -4.902633        0.955851
| 39>  H        -1.421104       -6.757529        0.977542
| 40>  H        -2.570168       -6.197550        2.234112
| 41>  H        -3.181127       -7.002598        0.746054
| 42> *
| 43>
| 44>                          ****END OF INPUT****
 Total Charge           Charge          ....    0
 Multiplicity           Mult            ....    1
 Number of Electrons    NEL             ....  162
FINAL SINGLE POINT ENERGY      -976.032856578887
FINAL SINGLE POINT ENERGY      -976.034722491898
FINAL SINGLE POINT ENERGY      -976.034766742428
FINAL SINGLE POINT ENERGY      -976.034782246404
FINAL SINGLE POINT ENERGY      -976.034783972162
FINAL SINGLE POINT ENERGY      -976.034784590774
                    ***********************HURRAY********************

CARTESIAN COORDINATES (ANGSTROEM)
---------------------------------
  C     -7.217862    3.478522   -0.225130
  C     -5.953524    4.105353   -0.186443
  C     -4.776630    3.379314   -0.126566
  C     -4.798749    1.970181   -0.100376
  C     -3.595775    1.197233   -0.021571
  C     -3.626695   -0.168014    0.005042
  C     -4.863361   -0.897890   -0.053964
  C     -4.908973   -2.326845   -0.036444
  C     -6.172563   -2.954029   -0.084167
  C     -7.353907   -2.228541   -0.131242
  C     -7.339835   -0.821438   -0.153281
  C     -8.542107   -0.047952   -0.227326
  C     -8.515579    1.317192   -0.256212
  C     -7.278166    2.048856   -0.203126
  C     -6.056651    1.292032   -0.140483
  C     -6.083442   -0.143058   -0.117284
  C     -8.436633    4.282896   -0.270551
  C     -3.681567   -3.125117    0.015453
  C     -8.525744    5.605230   -0.563504
  C     -3.592689   -4.383196    0.493721
  C     -9.765049    6.309780   -0.553518
  O     -2.436496   -5.075292    0.450850
  C     -2.405602   -6.309750    1.140722
  N    -10.767023    6.901304   -0.554452
  H     -5.898405    5.195710   -0.175720
  H     -3.815090    3.897904   -0.085536
  H     -2.639647    1.725900    0.023017
  H     -2.686897   -0.715179    0.081376
  H     -6.222657   -4.044496   -0.119876
  H     -8.313210   -2.751862   -0.175548
  H     -9.499073   -0.576034   -0.266173
  H     -9.460834    1.854696   -0.329006
  H     -9.375980    3.775917   -0.040544
  H     -2.751264   -2.688762   -0.355630
  H     -7.647148    6.197169   -0.836439
  H     -4.447531   -4.905582    0.943436
  H     -1.421903   -6.760316    0.951749
  H     -2.531252   -6.169903    2.229915
  H     -3.189286   -6.998769    0.775416

 Multiplicity           Mult            ....    1
 Number of Electrons    NEL             ....  162
 Basis Dimension        Dim             ....  411

ORBITAL ENERGIES
----------------

  NO   OCC          E(Eh)            E(eV)
   0   2.0000     -19.177097      -521.8353
   1   2.0000     -14.314387      -389.5143
   2   2.0000     -10.257284      -279.1149
   3   2.0000     -10.255475      -279.0657
   4   2.0000     -10.224115      -278.2123
   5   2.0000     -10.221762      -278.1483
   6   2.0000     -10.216200      -277.9969
   7   2.0000     -10.213386      -277.9204
   8   2.0000     -10.211929      -277.8807
   9   2.0000     -10.211265      -277.8626
  10   2.0000     -10.207699      -277.7656
  11   2.0000     -10.207395      -277.7573
  12   2.0000     -10.205957      -277.7182
  13   2.0000     -10.205609      -277.7087
  14   2.0000     -10.202549      -277.6255
  15   2.0000     -10.201933      -277.6087
  16   2.0000     -10.200764      -277.5769
  17   2.0000     -10.200015      -277.5565
  18   2.0000     -10.199605      -277.5454
  19   2.0000     -10.199314      -277.5374
  20   2.0000     -10.198627      -277.5187
  21   2.0000     -10.198589      -277.5177
  22   2.0000     -10.197322      -277.4832
  23   2.0000     -10.189375      -277.2670
  24   2.0000      -1.071594       -29.1595
  25   2.0000      -0.893704       -24.3189
  26   2.0000      -0.883974       -24.0541
  27   2.0000      -0.858836       -23.3701
  28   2.0000      -0.833272       -22.6745
  29   2.0000      -0.820858       -22.3367
  30   2.0000      -0.792532       -21.5659
  31   2.0000      -0.784700       -21.3528
  32   2.0000      -0.759250       -20.6603
  33   2.0000      -0.746445       -20.3118
  34   2.0000      -0.732355       -19.9284
  35   2.0000      -0.721673       -19.6377
  36   2.0000      -0.686904       -18.6916
  37   2.0000      -0.656601       -17.8670
  38   2.0000      -0.636293       -17.3144
  39   2.0000      -0.629323       -17.1247
  40   2.0000      -0.617826       -16.8119
  41   2.0000      -0.598501       -16.2860
  42   2.0000      -0.583441       -15.8762
  43   2.0000      -0.550572       -14.9818
  44   2.0000      -0.537518       -14.6266
  45   2.0000      -0.533091       -14.5061
  46   2.0000      -0.523775       -14.2527
  47   2.0000      -0.512721       -13.9519
  48   2.0000      -0.507010       -13.7964
  49   2.0000      -0.497680       -13.5426
  50   2.0000      -0.481089       -13.0911
  51   2.0000      -0.477462       -12.9924
  52   2.0000      -0.463321       -12.6076
  53   2.0000      -0.452851       -12.3227
  54   2.0000      -0.450249       -12.2519
  55   2.0000      -0.439561       -11.9611
  56   2.0000      -0.429898       -11.6981
  57   2.0000      -0.423634       -11.5277
  58   2.0000      -0.419707       -11.4208
  59   2.0000      -0.409616       -11.1462
  60   2.0000      -0.405611       -11.0372
  61   2.0000      -0.401039       -10.9128
  62   2.0000      -0.396334       -10.7848
  63   2.0000      -0.383813       -10.4441
  64   2.0000      -0.383560       -10.4372
  65   2.0000      -0.370041       -10.0693
  66   2.0000      -0.366275        -9.9668
  67   2.0000      -0.362225        -9.8566
  68   2.0000      -0.352253        -9.5853
  69   2.0000      -0.347931        -9.4677
  70   2.0000      -0.347649        -9.4600
  71   2.0000      -0.340666        -9.2700
  72   2.0000      -0.328600        -8.9417
  73   2.0000      -0.322632        -8.7793
  74   2.0000      -0.321982        -8.7616
  75   2.0000      -0.296406        -8.0656
  76   2.0000      -0.277124        -7.5409
  77   2.0000      -0.266163        -7.2427
  78   2.0000      -0.243401        -6.6233
  79   2.0000      -0.235348        -6.4042
  80   2.0000      -0.195641        -5.3237
  81   0.0000      -0.088998        -2.4218
  82   0.0000      -0.049705        -1.3525
  83   0.0000      -0.039407        -1.0723
  84   0.0000      -0.017522        -0.4768
  85   0.0000       0.003576         0.0973

MULLIKEN ATOMIC CHARGES
-----------------------
   0 C :    0.054683
   1 C :   -0.022437
   2 C :   -0.031810
   3 C :    0.072104
   4 C :   -0.009958
   5 C :   -0.030822
   6 C :    0.056954
   7 C :    0.075305
   8 C :   -0.038135
   9 C :   -0.027489
  10 C :    0.064333
  11 C :   -0.005277
  12 C :   -0.043918
  13 C :    0.082528
  14 C :    0.055009
  15 C :    0.064724
  16 C :    0.017066
  17 C :   -0.039950
  18 C :   -0.120526
  19 C :    0.130935
  20 C :   -0.098217
  21 O :   -0.300233
  22 C :    0.178986
  23 N :    0.031886
  24 H :   -0.024169
  25 H :   -0.029660
  26 H :   -0.031054
  27 H :   -0.028338
  28 H :   -0.033190
  29 H :   -0.030804
  30 H :   -0.029429
  31 H :   -0.029302
  32 H :    0.011337
  33 H :   -0.000180
  34 H :    0.036775
  35 H :   -0.006787
  36 H :    0.038594
  37 H :    0.021898
  38 H :    0.018568
Sum of atomic charges:   -0.0000000

LOEWDIN ATOMIC CHARGES
----------------------
   0 C :   -0.037391
   1 C :   -0.007395
   2 C :   -0.020927
   3 C :   -0.007669
   4 C :   -0.018439
   5 C :   -0.008401
   6 C :   -0.017428
   7 C :   -0.005245
   8 C :   -0.026356
   9 C :   -0.012016
  10 C :   -0.024672
  11 C :   -0.005908
  12 C :   -0.026418
  13 C :    0.000845
  14 C :    0.001772
  15 C :    0.004134
  16 C :    0.033326
  17 C :   -0.082607
  18 C :   -0.075892
  19 C :    0.063644
  20 C :   -0.037222
  21 O :   -0.096956
  22 C :    0.080739
  23 N :   -0.078553
  24 H :    0.028151
  25 H :    0.028675
  26 H :    0.028632
  27 H :    0.028646
  28 H :    0.023504
  29 H :    0.028038
  30 H :    0.029583
  31 H :    0.027336
  32 H :    0.036687
  33 H :    0.031999
  34 H :    0.044077
  35 H :    0.011409
  36 H :    0.029241
  37 H :    0.015012
  38 H :    0.014044

  Mayer bond orders larger than 0.100000
B(  0-C ,  1-C ) :   1.3100 B(  0-C , 13-C ) :   1.2557 B(  0-C , 16-C ) :   1.1130
B(  1-C ,  2-C ) :   1.3970 B(  1-C , 24-H ) :   0.9768 B(  2-C ,  3-C ) :   1.2689
B(  2-C , 25-H ) :   0.9881 B(  3-C ,  4-C ) :   1.1625 B(  3-C , 14-C ) :   1.2407
B(  4-C ,  5-C ) :   1.5316 B(  4-C , 26-H ) :   0.9849 B(  5-C ,  6-C ) :   1.1714
B(  5-C , 27-H ) :   0.9768 B(  6-C ,  7-C ) :   1.2711 B(  6-C , 15-C ) :   1.2317
B(  7-C ,  8-C ) :   1.3227 B(  7-C , 17-C ) :   1.0851 B(  8-C ,  9-C ) :   1.3810
B(  8-C , 28-H ) :   0.9765 B(  9-C , 10-C ) :   1.2794 B(  9-C , 29-H ) :   0.9870
B( 10-C , 11-C ) :   1.1586 B( 10-C , 15-C ) :   1.2414 B( 11-C , 12-C ) :   1.5407
B( 11-C , 30-H ) :   0.9833 B( 12-C , 13-C ) :   1.1682 B( 12-C , 31-H ) :   0.9768
B( 13-C , 14-C ) :   1.2337 B( 14-C , 15-C ) :   1.2289 B( 16-C , 18-C ) :   1.7449
B( 16-C , 32-H ) :   0.9568 B( 17-C , 19-C ) :   1.7190 B( 17-C , 33-H ) :   0.9506
B( 18-C , 20-C ) :   1.1088 B( 18-C , 34-H ) :   0.9444 B( 19-C , 21-O ) :   1.1417
B( 19-C , 35-H ) :   0.9526 B( 20-C , 23-N ) :   2.9615 B( 21-O , 22-C ) :   0.9567
B( 22-C , 36-H ) :   0.9811 B( 22-C , 37-H ) :   0.9693 B( 22-C , 38-H ) :   0.9667

FINAL SINGLE POINT ENERGY      -976.034785035054

DIPOLE MOMENT
-------------
                                X             Y             Z
Electronic contribution:     -8.43349      15.84440      -2.83239
Nuclear contribution   :     10.29852     -18.64492       3.34973
                        -----------------------------------------
Total Dipole Moment    :      1.86504      -2.80052       0.51735
                        -----------------------------------------
Magnitude (a.u.)       :      3.40425
Magnitude (Debye)      :      8.65292

VIBRATIONAL FREQUENCIES
-----------------------

Scaling factor for frequencies =  1.000000000  (already applied!)

   0:         0.00 cm**-1
   1:         0.00 cm**-1
   2:         0.00 cm**-1
   3:         0.00 cm**-1
   4:         0.00 cm**-1
   5:         0.00 cm**-1
   6:        20.73 cm**-1
   7:        36.53 cm**-1
   8:        54.02 cm**-1
   9:        62.48 cm**-1
  10:        67.36 cm**-1
  11:        89.94 cm**-1
  12:        99.66 cm**-1
  13:       116.59 cm**-1
  14:       143.19 cm**-1
  15:       157.12 cm**-1
  16:       201.98 cm**-1
  17:       210.80 cm**-1
  18:       222.94 cm**-1
  19:       245.42 cm**-1
  20:       266.13 cm**-1
  21:       270.67 cm**-1
  22:       297.03 cm**-1
  23:       322.68 cm**-1
  24:       369.34 cm**-1
  25:       400.05 cm**-1
  26:       420.66 cm**-1
  27:       452.09 cm**-1
  28:       478.14 cm**-1
  29:       494.26 cm**-1
  30:       506.11 cm**-1
  31:       523.03 cm**-1
  32:       528.12 cm**-1
  33:       543.80 cm**-1
  34:       561.54 cm**-1
  35:       566.31 cm**-1
  36:       580.06 cm**-1
  37:       615.26 cm**-1
  38:       630.46 cm**-1
  39:       677.00 cm**-1
  40:       702.37 cm**-1
  41:       719.10 cm**-1
  42:       756.15 cm**-1
  43:       761.14 cm**-1
  44:       781.26 cm**-1
  45:       815.13 cm**-1
  46:       817.78 cm**-1
  47:       831.73 cm**-1
  48:       852.19 cm**-1
  49:       857.00 cm**-1
  50:       876.77 cm**-1
  51:       884.74 cm**-1
  52:       887.91 cm**-1
  53:       940.69 cm**-1
  54:       947.60 cm**-1
  55:       983.98 cm**-1
  56:       989.25 cm**-1
  57:       993.37 cm**-1
  58:       998.61 cm**-1
  59:      1002.42 cm**-1
  60:      1012.33 cm**-1
  61:      1016.30 cm**-1
  62:      1039.32 cm**-1
  63:      1046.90 cm**-1
  64:      1120.94 cm**-1
  65:      1131.11 cm**-1
  66:      1169.61 cm**-1
  67:      1171.02 cm**-1
  68:      1180.79 cm**-1
  69:      1187.24 cm**-1
  70:      1200.22 cm**-1
  71:      1209.38 cm**-1
  72:      1241.26 cm**-1
  73:      1257.72 cm**-1
  74:      1265.29 cm**-1
  75:      1271.79 cm**-1
  76:      1279.34 cm**-1
  77:      1293.19 cm**-1
  78:      1308.97 cm**-1
  79:      1327.33 cm**-1
  80:      1338.45 cm**-1
  81:      1368.14 cm**-1
  82:      1370.82 cm**-1
  83:      1405.99 cm**-1
  84:      1407.12 cm**-1
  85:      1424.61 cm**-1
  86:      1440.95 cm**-1
  87:      1464.39 cm**-1
  88:      1466.17 cm**-1
  89:      1470.31 cm**-1
  90:      1475.07 cm**-1
  91:      1503.56 cm**-1
  92:      1535.80 cm**-1
  93:      1545.97 cm**-1
  94:      1574.38 cm**-1
  95:      1621.71 cm**-1
  96:      1637.98 cm**-1
  97:      1656.68 cm**-1
  98:      1663.38 cm**-1
  99:      1675.08 cm**-1
 100:      1717.22 cm**-1
 101:      2337.73 cm**-1
 102:      2995.95 cm**-1
 103:      3068.82 cm**-1
 104:      3133.81 cm**-1
 105:      3145.56 cm**-1
 106:      3171.14 cm**-1
 107:      3173.12 cm**-1
 108:      3174.37 cm**-1
 109:      3174.75 cm**-1
 110:      3178.01 cm**-1
 111:      3186.25 cm**-1
 112:      3192.37 cm**-1
 113:      3192.96 cm**-1
 114:      3197.91 cm**-1
 115:      3215.63 cm**-1
 116:      3217.63 cm**-1

IR SPECTRUM
-----------

 Mode   freq       eps      Int      T**2         TX        TY        TZ
       cm**-1   L/(mol*cm) km/mol    a.u.
----------------------------------------------------------------------------
  6:     20.73   0.000046    0.23  0.000697  (-0.001658 -0.026321 -0.001264)
  7:     36.53   0.000783    3.95  0.006685  (-0.000606  0.047993  0.066188)
  8:     54.02   0.000171    0.86  0.000988  ( 0.026013 -0.011884  0.013050)
  9:     62.48   0.000720    3.64  0.003597  (-0.034196 -0.028470 -0.040215)
 10:     67.36   0.000335    1.69  0.001551  ( 0.001090 -0.027044  0.028608)
 11:     89.94   0.000319    1.61  0.001106  ( 0.020478  0.025358 -0.006581)
 12:     99.66   0.000106    0.53  0.000330  (-0.003277 -0.008414  0.015778)
 13:    116.59   0.000131    0.66  0.000351  ( 0.006664 -0.017333 -0.002525)
 14:    143.19   0.000023    0.12  0.000051  (-0.003896  0.005933 -0.000831)
 15:    157.12   0.000523    2.64  0.001038  (-0.010665  0.014925  0.026483)
 16:    201.98   0.000068    0.34  0.000105  ( 0.000244  0.008729  0.005376)
 17:    210.80   0.000953    4.82  0.001411  ( 0.007938  0.031477 -0.018900)
 18:    222.94   0.001338    6.76  0.001872  (-0.000456 -0.017276 -0.039669)
 19:    245.42   0.000110    0.55  0.000140  ( 0.007756  0.008335 -0.003153)
 20:    266.13   0.000019    0.10  0.000022  ( 0.001916  0.003847  0.001933)
 21:    270.67   0.000141    0.71  0.000163  ( 0.008454 -0.009484 -0.001145)
 22:    297.03   0.000181    0.92  0.000191  ( 0.008319  0.009533  0.005519)
 23:    322.68   0.001391    7.03  0.001346  ( 0.026913 -0.024213 -0.005911)
 24:    369.34   0.000242    1.22  0.000204  (-0.009941  0.009171  0.004607)
 25:    400.05   0.003633   18.36  0.002834  ( 0.033084 -0.041051  0.007353)
 26:    420.66   0.000491    2.48  0.000365  (-0.009754  0.016387 -0.000918)
 27:    452.09   0.000401    2.03  0.000277  ( 0.007504 -0.012550 -0.007947)
 28:    478.14   0.000702    3.55  0.000458  ( 0.014437 -0.015285  0.004035)
 29:    494.26   0.000635    3.21  0.000401  (-0.000709  0.002856  0.019807)
 30:    506.11   0.000150    0.76  0.000093  (-0.003349  0.007187 -0.005455)
 31:    523.03   0.002035   10.29  0.001214  ( 0.008137 -0.033883  0.000216)
 32:    528.12   0.000016    0.08  0.000010  (-0.001564  0.000712 -0.002578)
 33:    543.80   0.000373    1.88  0.000214  (-0.013971  0.004307 -0.000368)
 34:    561.54   0.000026    0.13  0.000015  ( 0.000812 -0.001946 -0.003186)
 35:    566.31   0.000129    0.65  0.000071  ( 0.003468 -0.007665 -0.000395)
 36:    580.06   0.000971    4.91  0.000523  ( 0.012677 -0.012960 -0.013922)
 37:    615.26   0.002229   11.26  0.001131  (-0.016325  0.029221  0.003199)
 38:    630.46   0.000125    0.63  0.000062  ( 0.006879 -0.003825  0.000240)
 39:    677.00   0.000275    1.39  0.000127  (-0.004156  0.009127  0.005131)
 40:    702.37   0.000155    0.78  0.000069  (-0.005643  0.006060  0.000426)
 41:    719.10   0.001127    5.70  0.000489  (-0.001148  0.003705 -0.021774)
 42:    756.15   0.002479   12.53  0.001023  ( 0.003087 -0.000543 -0.031833)
 43:    761.14   0.000294    1.48  0.000120  (-0.005434  0.002606 -0.009172)
 44:    781.26   0.000251    1.27  0.000100  (-0.003629  0.009136 -0.001935)
 45:    815.13   0.005247   26.51  0.002009  ( 0.019498 -0.040322 -0.001583)
 46:    817.78   0.000267    1.35  0.000102  (-0.003181  0.004153 -0.008634)
 47:    831.73   0.001917    9.69  0.000719  (-0.004546  0.011925 -0.023588)
 48:    852.19   0.000866    4.38  0.000317  (-0.005049 -0.007918 -0.015129)
 49:    857.00   0.000178    0.90  0.000065  (-0.004197 -0.001944  0.006589)
 50:    876.77   0.004826   24.39  0.001718  ( 0.005301 -0.007142  0.040478)
 51:    884.74   0.000201    1.01  0.000071  (-0.006530 -0.001286 -0.005151)
 52:    887.91   0.006816   34.44  0.002395  ( 0.007077 -0.007924 -0.047776)
 53:    940.69   0.000358    1.81  0.000119  ( 0.003566 -0.002400  0.010022)
 54:    947.60   0.009539   48.21  0.003141  (-0.024709  0.017464 -0.047178)
 55:    983.98   0.007233   36.55  0.002294  ( 0.013465 -0.035698 -0.028954)
 56:    989.25   0.001667    8.42  0.000526  ( 0.010994 -0.017093  0.010614)
 57:    993.37   0.000164    0.83  0.000052  (-0.002626 -0.006450 -0.001753)
 58:    998.61   0.000549    2.78  0.000172  (-0.007834  0.010503 -0.000183)
 59:   1002.42   0.001970    9.95  0.000613  ( 0.009972 -0.007004  0.021555)
 60:   1012.33   0.000247    1.25  0.000076  (-0.001444  0.008502 -0.001383)
 61:   1016.30   0.000007    0.03  0.000002  (-0.000552  0.000613 -0.001162)
 62:   1039.32   0.000943    4.76  0.000283  (-0.011864 -0.009558  0.007138)
 63:   1046.90   0.005030   25.42  0.001499  (-0.012063 -0.030122  0.021130)
 64:   1120.94   0.003879   19.60  0.001080  (-0.006746  0.031392 -0.006998)
 65:   1131.11   0.000068    0.34  0.000019  ( 0.002232 -0.003631  0.000785)
 66:   1169.61   0.005741   29.01  0.001532  ( 0.013486 -0.036528  0.003945)
 67:   1171.02   0.032553  164.51  0.008675  ( 0.038159 -0.081977  0.022332)
 68:   1180.79   0.003131   15.82  0.000827  (-0.013702  0.024117 -0.007619)
 69:   1187.24   0.002756   13.93  0.000724  (-0.015573  0.021501 -0.004427)
 70:   1200.22   0.000753    3.81  0.000196  (-0.004097 -0.013362 -0.000693)
 71:   1209.38   0.003841   19.41  0.000991  (-0.030673  0.005554 -0.004418)
 72:   1241.26   0.018953   95.78  0.004765  ( 0.034904 -0.058385  0.011744)
 73:   1257.72   0.094371  476.91  0.023415  (-0.068795  0.134964 -0.021610)
 74:   1265.29   0.008965   45.30  0.002211  ( 0.022750 -0.041067  0.002625)
 75:   1271.79   0.002084   10.53  0.000511  ( 0.012388 -0.018021  0.005752)
 76:   1279.34   0.002271   11.48  0.000554  (-0.019860  0.012549  0.001436)
 77:   1293.19   0.089465  452.12  0.021589  (-0.079522  0.120852 -0.025691)
 78:   1308.97   0.012586   63.60  0.003000  (-0.029061  0.044918 -0.011758)
 79:   1327.33   0.002758   13.94  0.000648  (-0.013390  0.021609 -0.001453)
 80:   1338.45   0.001868    9.44  0.000435  ( 0.004038 -0.020314  0.002551)
 81:   1368.14   0.000855    4.32  0.000195  (-0.008967 -0.009113  0.005616)
 82:   1370.82   0.000621    3.14  0.000141  (-0.010666 -0.003544  0.003872)
 83:   1405.99   0.001216    6.15  0.000270  (-0.009935  0.011712 -0.005841)
 84:   1407.12   0.001928    9.74  0.000427  (-0.005546  0.019422 -0.004419)
 85:   1424.61   0.004546   22.98  0.000996  ( 0.008703 -0.030160  0.003248)
 86:   1440.95   0.000491    2.48  0.000106  (-0.006236  0.008197 -0.000432)
 87:   1464.39   0.000862    4.35  0.000184  (-0.001342  0.008867  0.010157)
 88:   1466.17   0.001358    6.87  0.000289  (-0.000872 -0.016177 -0.005166)
 89:   1470.31   0.000722    3.65  0.000153  ( 0.004546 -0.010995 -0.003405)
 90:   1475.07   0.019505   98.57  0.004127  (-0.039035  0.050005 -0.010113)
 91:   1503.56   0.000487    2.46  0.000101  ( 0.008615  0.005156  0.000522)
 92:   1535.80   0.000455    2.30  0.000093  (-0.009511 -0.001421 -0.000238)
 93:   1545.97   0.002399   12.13  0.000484  (-0.008328  0.020371  0.000105)
 94:   1574.38   0.003961   20.02  0.000785  (-0.017894  0.021290 -0.003428)
 95:   1621.71   0.001601    8.09  0.000308  (-0.004176  0.016963 -0.001699)
 96:   1637.98   0.053520  270.47  0.010196  ( 0.054279 -0.084584  0.009787)
 97:   1656.68   0.008228   41.58  0.001550  (-0.002487  0.039252 -0.001701)
 98:   1663.38   0.024185  122.22  0.004537  (-0.036652  0.056129 -0.006599)
 99:   1675.08   0.001077    5.44  0.000201  ( 0.000315 -0.014140  0.000808)
100:   1717.22   0.098978  500.20  0.017987  (-0.063803  0.115971 -0.021606)
101:   2337.73   0.027855  140.77  0.003718  (-0.037485  0.047959 -0.003638)
102:   2995.95   0.032986  166.70  0.003436  ( 0.013698 -0.053527  0.019573)
103:   3068.82   0.007276   36.77  0.000740  ( 0.011031  0.009474  0.022989)
104:   3133.81   0.002027   10.24  0.000202  ( 0.013572 -0.002207 -0.003568)
105:   3145.56   0.003739   18.90  0.000371  ( 0.016735 -0.008928 -0.003351)
106:   3171.14   0.000213    1.08  0.000021  (-0.003653  0.002740 -0.000318)
107:   3173.12   0.000602    3.04  0.000059  (-0.003448  0.006870 -0.000295)
108:   3174.37   0.002088   10.55  0.000205  ( 0.014290 -0.000483  0.000906)
109:   3174.75   0.002783   14.07  0.000274  (-0.015687  0.005167 -0.000897)
110:   3178.01   0.001322    6.68  0.000130  ( 0.011224  0.001905  0.000492)
111:   3186.25   0.001691    8.55  0.000166  (-0.007603  0.010378 -0.000325)
112:   3192.37   0.003371   17.04  0.000330  (-0.005837 -0.017187 -0.000276)
113:   3192.96   0.001476    7.46  0.000144  (-0.003250  0.011558  0.000339)
114:   3197.91   0.002045   10.34  0.000200  (-0.006785 -0.012391  0.000016)
115:   3215.63   0.002335   11.80  0.000227  ( 0.014661 -0.003350  0.000649)
116:   3217.63   0.002277   11.51  0.000221  ( 0.014119 -0.004617  0.000458)

--------------------------
THERMOCHEMISTRY AT 298.15K
--------------------------

Temperature         ... 298.15 K
Pressure            ... 1.00 atm
Total Mass          ... 309.37 AMU

Throughout the following assumptions are being made:
  (1) The electronic state is orbitally nondegenerate
  (2) There are no thermally accessible electronically excited states
  (3) Hindered rotations indicated by low frequency modes are not
      treated as such but are treated as vibrations and this may
      cause some error
  (4) All equations used are the standard statistical mechanics
      equations for an ideal gas
  (5) All vibrations are strictly harmonic

freq.      20.73  E(vib)   ...       0.56
freq.      36.53  E(vib)   ...       0.54
freq.      54.02  E(vib)   ...       0.52
freq.      62.48  E(vib)   ...       0.51
freq.      67.36  E(vib)   ...       0.50
freq.      89.94  E(vib)   ...       0.47
freq.      99.66  E(vib)   ...       0.46
freq.     116.59  E(vib)   ...       0.44
freq.     143.19  E(vib)   ...       0.41
freq.     157.12  E(vib)   ...       0.40
freq.     201.98  E(vib)   ...       0.35
freq.     210.80  E(vib)   ...       0.34
freq.     222.94  E(vib)   ...       0.33
freq.     245.42  E(vib)   ...       0.31
freq.     266.13  E(vib)   ...       0.29
freq.     270.67  E(vib)   ...       0.29
freq.     297.03  E(vib)   ...       0.27
freq.     322.68  E(vib)   ...       0.25
freq.     369.34  E(vib)   ...       0.21
freq.     400.05  E(vib)   ...       0.19
freq.     420.66  E(vib)   ...       0.18
freq.     452.09  E(vib)   ...       0.16
freq.     478.14  E(vib)   ...       0.15
freq.     494.26  E(vib)   ...       0.14
freq.     506.11  E(vib)   ...       0.14
freq.     523.03  E(vib)   ...       0.13
freq.     528.12  E(vib)   ...       0.13
freq.     543.80  E(vib)   ...       0.12
freq.     561.54  E(vib)   ...       0.11
freq.     566.31  E(vib)   ...       0.11
freq.     580.06  E(vib)   ...       0.11
freq.     615.26  E(vib)   ...       0.10
freq.     630.46  E(vib)   ...       0.09
freq.     677.00  E(vib)   ...       0.08
freq.     702.37  E(vib)   ...       0.07
freq.     719.10  E(vib)   ...       0.07
freq.     756.15  E(vib)   ...       0.06
freq.     761.14  E(vib)   ...       0.06
freq.     781.26  E(vib)   ...       0.05
freq.     815.13  E(vib)   ...       0.05
freq.     817.78  E(vib)   ...       0.05
freq.     831.73  E(vib)   ...       0.04
freq.     852.19  E(vib)   ...       0.04
freq.     857.00  E(vib)   ...       0.04
freq.     876.77  E(vib)   ...       0.04
freq.     884.74  E(vib)   ...       0.04
freq.     887.91  E(vib)   ...       0.04
freq.     940.69  E(vib)   ...       0.03
freq.     947.60  E(vib)   ...       0.03
freq.     983.98  E(vib)   ...       0.02
freq.     989.25  E(vib)   ...       0.02
freq.     993.37  E(vib)   ...       0.02
freq.     998.61  E(vib)   ...       0.02
freq.    1002.42  E(vib)   ...       0.02
freq.    1012.33  E(vib)   ...       0.02
freq.    1016.30  E(vib)   ...       0.02
freq.    1039.32  E(vib)   ...       0.02
freq.    1046.90  E(vib)   ...       0.02
freq.    1120.94  E(vib)   ...       0.01
freq.    1131.11  E(vib)   ...       0.01
freq.    1169.61  E(vib)   ...       0.01
freq.    1171.02  E(vib)   ...       0.01
freq.    1180.79  E(vib)   ...       0.01
freq.    1187.24  E(vib)   ...       0.01
freq.    1200.22  E(vib)   ...       0.01
freq.    1209.38  E(vib)   ...       0.01
freq.    1241.26  E(vib)   ...       0.01
freq.    1257.72  E(vib)   ...       0.01
freq.    1265.29  E(vib)   ...       0.01
freq.    1271.79  E(vib)   ...       0.01
freq.    1279.34  E(vib)   ...       0.01
freq.    1293.19  E(vib)   ...       0.01
freq.    1308.97  E(vib)   ...       0.01
freq.    1327.33  E(vib)   ...       0.01
freq.    1338.45  E(vib)   ...       0.01
freq.    1368.14  E(vib)   ...       0.01
freq.    1370.82  E(vib)   ...       0.01
freq.    1405.99  E(vib)   ...       0.00
freq.    1407.12  E(vib)   ...       0.00
freq.    1424.61  E(vib)   ...       0.00
freq.    1440.95  E(vib)   ...       0.00
freq.    1464.39  E(vib)   ...       0.00
freq.    1466.17  E(vib)   ...       0.00
freq.    1470.31  E(vib)   ...       0.00
freq.    1475.07  E(vib)   ...       0.00
freq.    1503.56  E(vib)   ...       0.00
freq.    1535.80  E(vib)   ...       0.00
freq.    1545.97  E(vib)   ...       0.00
freq.    1574.38  E(vib)   ...       0.00
freq.    1621.71  E(vib)   ...       0.00
freq.    1637.98  E(vib)   ...       0.00
freq.    1656.68  E(vib)   ...       0.00
freq.    1663.38  E(vib)   ...       0.00
freq.    1675.08  E(vib)   ...       0.00
freq.    1717.22  E(vib)   ...       0.00
freq.    2337.73  E(vib)   ...       0.00
freq.    2995.95  E(vib)   ...       0.00
freq.    3068.82  E(vib)   ...       0.00
freq.    3133.81  E(vib)   ...       0.00
freq.    3145.56  E(vib)   ...       0.00
freq.    3171.14  E(vib)   ...       0.00
freq.    3173.12  E(vib)   ...       0.00
freq.    3174.37  E(vib)   ...       0.00
freq.    3174.75  E(vib)   ...       0.00
freq.    3178.01  E(vib)   ...       0.00
freq.    3186.25  E(vib)   ...       0.00
freq.    3192.37  E(vib)   ...       0.00
freq.    3192.96  E(vib)   ...       0.00
freq.    3197.91  E(vib)   ...       0.00
freq.    3215.63  E(vib)   ...       0.00
freq.    3217.63  E(vib)   ...       0.00

------------
INNER ENERGY
------------

The inner energy is: U= E(el) + E(ZPE) + E(vib) + E(rot) + E(trans)
    E(el)   - is the total energy from the electronic structure calculation
              = E(kin-el) + E(nuc-el) + E(el-el) + E(nuc-nuc)
    E(ZPE)  - the the zero temperature vibrational energy from the frequency calculation
    E(vib)  - the the finite temperature correction to E(ZPE) due to population
              of excited vibrational states
    E(rot)  - is the rotational thermal energy
    E(trans)- is the translational thermal energy

Summary of contributions to the inner energy U:
Electronic energy                ...   -976.03478504 Eh
Zero point energy                ...      0.30500233 Eh     191.39 kcal/mol
Thermal vibrational correction   ...      0.01675195 Eh      10.51 kcal/mol
Thermal rotational correction    ...      0.00141627 Eh       0.89 kcal/mol
Thermal translational correction ...      0.00141627 Eh       0.89 kcal/mol
-----------------------------------------------------------------------
Total thermal energy                   -975.71019821 Eh

Summary of corrections to the electronic energy:
(perhaps to be used in another calculation)
Total thermal correction                  0.01958449 Eh      12.29 kcal/mol
Non-thermal (ZPE) correction              0.30500233 Eh     191.39 kcal/mol
-----------------------------------------------------------------------
Total correction                          0.32458682 Eh     203.68 kcal/mol

--------

Rotational constants in cm-1:     0.025751     0.003247     0.002896

                             ****ORCA TERMINATED NORMALLY****
TOTAL RUN TIME: 0 days 0 hours 52 minutes 35 seconds 90 msec
