                         Program Version 5.0.4 -  RELEASE  -
|  1> ! B3LYP def2-SVP Opt PAL8 FREQ
|  2> #defgrid3 slowconv VeryTightSCF
|  3> *xyz 0 1
|  4>   C   -7.188239    3.332064   -0.274933
|  5>   C   -5.977912    3.923851   -0.249593
|  6>   C   -4.843943    3.220205   -0.172070
|  7>   C   -4.889457    1.882792   -0.117152
|  8>   C   -3.744739    1.191413   -0.040072
|  9>   C   -3.765750   -0.144845    0.015405
| 10>   C   -4.916422   -0.847138   -0.003152
| 11>   C   -4.942157   -2.207610    0.052846
| 12>   C   -6.151829   -2.800466    0.028471
| 13>   C   -7.285953   -2.096887   -0.047219
| 14>   C   -7.240618   -0.759403   -0.101967
| 15>   C   -8.385317   -0.068007   -0.178212
| 16>   C   -8.364324    1.268238   -0.234411
| 17>   C   -7.214019    1.971389   -0.217338
| 18>   C   -6.071415    1.240058   -0.138857
| 19>   C   -6.059061   -0.115968   -0.080845
| 20>   C   -8.293539    4.112529   -0.355262
| 21>   C   -3.836584   -2.987050    0.129021
| 22>   C   -8.383968    5.454669   -0.417755
| 23>   C   -3.740123   -4.329079    0.190773
| 24>   C   -9.556151    6.048954   -0.493000
| 25>   O   -2.517579   -4.939945    0.281546
| 26>   C   -2.484651   -6.077900    1.113688
| 27>   N  -10.586822    6.573043   -0.559209
| 28>   H   -5.837612    5.014171   -0.290418
| 29>   H   -3.881494    3.760979   -0.154979
| 30>   H   -2.769212    1.708751   -0.021047
| 31>   H   -2.767224   -0.599650    0.076738
| 32>   H   -6.290672   -3.891074    0.067398
| 33>   H   -8.248298   -2.637808   -0.064137
| 34>   H   -9.360801   -0.585489   -0.196174
| 35>   H   -9.363461    1.721796   -0.294690
| 36>   H   -9.289930    3.646530   -0.376873
| 37>   H   -2.836943   -2.529569    0.144708
| 38>   H   -7.516419    6.128907   -0.410868
| 39>   H   -4.609824   -5.001881    0.206088
| 40>   H   -1.435961   -6.448913    1.151691
| 41>   H   -2.811899   -5.804769    2.142163
| 42>   H   -3.134107   -6.879472    0.695687
| 43> **                         ****END OF INPUT****
 Total Charge           Charge          ....    0
 Multiplicity           Mult            ....    1
 Number of Electrons    NEL             ....  162
FINAL SINGLE POINT ENERGY      -975.898716233060
FINAL SINGLE POINT ENERGY      -975.988645620340
FINAL SINGLE POINT ENERGY      -976.027282625785
FINAL SINGLE POINT ENERGY      -976.032696706462
FINAL SINGLE POINT ENERGY      -976.033586095925
FINAL SINGLE POINT ENERGY      -976.034051568124
FINAL SINGLE POINT ENERGY      -976.034218161511
FINAL SINGLE POINT ENERGY      -976.034298051716
FINAL SINGLE POINT ENERGY      -976.034335109668
FINAL SINGLE POINT ENERGY      -976.034357124611
FINAL SINGLE POINT ENERGY      -976.034538240409
FINAL SINGLE POINT ENERGY      -976.034656808580
FINAL SINGLE POINT ENERGY      -976.034685819654
FINAL SINGLE POINT ENERGY      -976.034712523607
FINAL SINGLE POINT ENERGY      -976.034725820067
FINAL SINGLE POINT ENERGY      -976.034742775126
FINAL SINGLE POINT ENERGY      -976.034752877401
FINAL SINGLE POINT ENERGY      -976.034758855876
FINAL SINGLE POINT ENERGY      -976.034763685254
                    ***********************HURRAY********************

CARTESIAN COORDINATES (ANGSTROEM)
---------------------------------
  C     -7.217413    3.478866   -0.268637
  C     -5.951446    4.103154   -0.226802
  C     -4.776323    3.377690   -0.151212
  C     -4.799086    1.968572   -0.114946
  C     -3.596265    1.197053   -0.029071
  C     -3.626430   -0.168070    0.004087
  C     -4.862545   -0.898294   -0.053870
  C     -4.907145   -2.327436   -0.029002
  C     -6.170124   -2.955485   -0.074641
  C     -7.351812   -2.230600   -0.124685
  C     -7.338473   -0.823808   -0.154287
  C     -8.540914   -0.050883   -0.225954
  C     -8.515333    1.313914   -0.263932
  C     -7.278568    2.048265   -0.230912
  C     -6.056944    1.291036   -0.157170
  C     -6.082847   -0.144141   -0.123437
  C     -8.433983    4.282406   -0.349699
  C     -3.678602   -3.123684    0.029252
  C     -8.521629    5.635728   -0.414756
  C     -3.588494   -4.380264    0.511268
  C     -9.773826    6.312825   -0.493266
  O     -2.428344   -5.066513    0.481656
  C     -2.409668   -6.316367    1.144059
  N    -10.786674    6.881919   -0.558944
  H     -5.890018    5.192708   -0.251746
  H     -3.814269    3.895854   -0.117921
  H     -2.640511    1.726370    0.015428
  H     -2.686419   -0.713893    0.086190
  H     -6.220403   -4.046156   -0.104461
  H     -8.310985   -2.754515   -0.164817
  H     -9.498454   -0.578732   -0.251412
  H     -9.463969    1.846744   -0.319855
  H     -9.383411    3.745211   -0.361524
  H     -2.747526   -2.685937   -0.338160
  H     -7.637151    6.278923   -0.413083
  H     -4.444560   -4.904729    0.956018
  H     -1.416711   -6.755071    0.977106
  H     -2.571838   -6.202641    2.231445
  H     -3.175316   -7.002600    0.737684

 Multiplicity           Mult            ....    1
 Number of Electrons    NEL             ....  162
 Basis Dimension        Dim             ....  411

ORBITAL ENERGIES
----------------

  NO   OCC          E(Eh)            E(eV)
   0   2.0000     -19.177295      -521.8407
   1   2.0000     -14.313741      -389.4967
   2   2.0000     -10.257433      -279.1190
   3   2.0000     -10.255712      -279.0721
   4   2.0000     -10.223549      -278.1969
   5   2.0000     -10.221284      -278.1353
   6   2.0000     -10.215652      -277.9820
   7   2.0000     -10.214072      -277.9390
   8   2.0000     -10.212142      -277.8865
   9   2.0000     -10.211621      -277.8723
  10   2.0000     -10.207945      -277.7723
  11   2.0000     -10.207610      -277.7632
  12   2.0000     -10.206123      -277.7227
  13   2.0000     -10.205776      -277.7133
  14   2.0000     -10.202652      -277.6283
  15   2.0000     -10.201931      -277.6087
  16   2.0000     -10.200786      -277.5775
  17   2.0000     -10.200217      -277.5620
  18   2.0000     -10.199750      -277.5493
  19   2.0000     -10.199454      -277.5413
  20   2.0000     -10.198762      -277.5224
  21   2.0000     -10.198729      -277.5215
  22   2.0000     -10.197456      -277.4869
  23   2.0000     -10.189516      -277.2708
  24   2.0000      -1.071764       -29.1642
  25   2.0000      -0.893800       -24.3215
  26   2.0000      -0.883401       -24.0386
  27   2.0000      -0.858889       -23.3716
  28   2.0000      -0.833460       -22.6796
  29   2.0000      -0.820822       -22.3357
  30   2.0000      -0.792497       -21.5650
  31   2.0000      -0.784910       -21.3585
  32   2.0000      -0.759366       -20.6634
  33   2.0000      -0.746605       -20.3162
  34   2.0000      -0.732583       -19.9346
  35   2.0000      -0.721844       -19.6424
  36   2.0000      -0.687069       -18.6961
  37   2.0000      -0.656703       -17.8698
  38   2.0000      -0.636519       -17.3206
  39   2.0000      -0.629576       -17.1316
  40   2.0000      -0.618026       -16.8173
  41   2.0000      -0.598536       -16.2870
  42   2.0000      -0.583629       -15.8814
  43   2.0000      -0.550913       -14.9911
  44   2.0000      -0.537770       -14.6335
  45   2.0000      -0.533404       -14.5147
  46   2.0000      -0.523844       -14.2545
  47   2.0000      -0.512769       -13.9531
  48   2.0000      -0.507122       -13.7995
  49   2.0000      -0.497643       -13.5415
  50   2.0000      -0.481215       -13.0945
  51   2.0000      -0.477139       -12.9836
  52   2.0000      -0.463466       -12.6115
  53   2.0000      -0.453468       -12.3395
  54   2.0000      -0.450289       -12.2530
  55   2.0000      -0.439521       -11.9600
  56   2.0000      -0.429267       -11.6809
  57   2.0000      -0.423703       -11.5295
  58   2.0000      -0.420143       -11.4327
  59   2.0000      -0.409564       -11.1448
  60   2.0000      -0.405783       -11.0419
  61   2.0000      -0.401264       -10.9189
  62   2.0000      -0.395316       -10.7571
  63   2.0000      -0.385872       -10.5001
  64   2.0000      -0.383850       -10.4451
  65   2.0000      -0.369662       -10.0590
  66   2.0000      -0.365961        -9.9583
  67   2.0000      -0.362213        -9.8563
  68   2.0000      -0.352380        -9.5887
  69   2.0000      -0.348311        -9.4780
  70   2.0000      -0.347172        -9.4470
  71   2.0000      -0.340944        -9.2776
  72   2.0000      -0.328907        -8.9500
  73   2.0000      -0.322753        -8.7826
  74   2.0000      -0.321881        -8.7588
  75   2.0000      -0.296792        -8.0761
  76   2.0000      -0.277280        -7.5452
  77   2.0000      -0.266273        -7.2457
  78   2.0000      -0.243076        -6.6144
  79   2.0000      -0.235299        -6.4028
  80   2.0000      -0.195538        -5.3209
  81   0.0000      -0.089648        -2.4394
  82   0.0000      -0.049690        -1.3521
  83   0.0000      -0.039318        -1.0699
  84   0.0000      -0.017443        -0.4747
  85   0.0000       0.004599         0.1251

MULLIKEN ATOMIC CHARGES
-----------------------
   0 C :    0.060258
   1 C :   -0.022524
   2 C :   -0.030114
   3 C :    0.071386
   4 C :   -0.010287
   5 C :   -0.031271
   6 C :    0.057815
   7 C :    0.075816
   8 C :   -0.038708
   9 C :   -0.027267
  10 C :    0.064588
  11 C :   -0.006702
  12 C :   -0.042401
  13 C :    0.083288
  14 C :    0.055862
  15 C :    0.064373
  16 C :    0.022960
  17 C :   -0.039834
  18 C :   -0.123122
  19 C :    0.130978
  20 C :   -0.099171
  21 O :   -0.300113
  22 C :    0.179404
  23 N :    0.034284
  24 H :   -0.026645
  25 H :   -0.030179
  26 H :   -0.031031
  27 H :   -0.028286
  28 H :   -0.033225
  29 H :   -0.030766
  30 H :   -0.029578
  31 H :   -0.030230
  32 H :    0.003402
  33 H :   -0.000200
  34 H :    0.035036
  35 H :   -0.006672
  36 H :    0.038554
  37 H :    0.021693
  38 H :    0.018629
Sum of atomic charges:   -0.0000000

LOEWDIN ATOMIC CHARGES
----------------------
   0 C :   -0.037548
   1 C :   -0.006149
   2 C :   -0.020595
   3 C :   -0.007304
   4 C :   -0.018572
   5 C :   -0.007964
   6 C :   -0.017413
   7 C :   -0.005050
   8 C :   -0.026469
   9 C :   -0.011788
  10 C :   -0.024849
  11 C :   -0.005999
  12 C :   -0.026187
  13 C :    0.001932
  14 C :    0.001692
  15 C :    0.004227
  16 C :    0.032963
  17 C :   -0.082709
  18 C :   -0.076448
  19 C :    0.063848
  20 C :   -0.037371
  21 O :   -0.096899
  22 C :    0.080795
  23 N :   -0.079450
  24 H :    0.027763
  25 H :    0.028659
  26 H :    0.028649
  27 H :    0.028692
  28 H :    0.023499
  29 H :    0.028060
  30 H :    0.029576
  31 H :    0.027298
  32 H :    0.036052
  33 H :    0.032009
  34 H :    0.043113
  35 H :    0.011522
  36 H :    0.029294
  37 H :    0.015005
  38 H :    0.014118

  Mayer bond orders larger than 0.100000
B(  0-C ,  1-C ) :   1.3049 B(  0-C , 13-C ) :   1.2502 B(  0-C , 16-C ) :   1.1239
B(  1-C ,  2-C ) :   1.4040 B(  1-C , 24-H ) :   0.9759 B(  2-C ,  3-C ) :   1.2647
B(  2-C , 25-H ) :   0.9880 B(  3-C ,  4-C ) :   1.1640 B(  3-C , 14-C ) :   1.2417
B(  4-C ,  5-C ) :   1.5300 B(  4-C , 26-H ) :   0.9851 B(  5-C ,  6-C ) :   1.1717
B(  5-C , 27-H ) :   0.9770 B(  6-C ,  7-C ) :   1.2701 B(  6-C , 15-C ) :   1.2318
B(  7-C ,  8-C ) :   1.3228 B(  7-C , 17-C ) :   1.0861 B(  8-C ,  9-C ) :   1.3807
B(  8-C , 28-H ) :   0.9765 B(  9-C , 10-C ) :   1.2793 B(  9-C , 29-H ) :   0.9872
B( 10-C , 11-C ) :   1.1584 B( 10-C , 15-C ) :   1.2418 B( 11-C , 12-C ) :   1.5432
B( 11-C , 30-H ) :   0.9830 B( 12-C , 13-C ) :   1.1671 B( 12-C , 31-H ) :   0.9781
B( 13-C , 14-C ) :   1.2352 B( 14-C , 15-C ) :   1.2283 B( 16-C , 18-C ) :   1.7396
B( 16-C , 32-H ) :   0.9603 B( 17-C , 19-C ) :   1.7181 B( 17-C , 33-H ) :   0.9505
B( 18-C , 20-C ) :   1.1091 B( 18-C , 34-H ) :   0.9435 B( 19-C , 21-O ) :   1.1425
B( 19-C , 35-H ) :   0.9529 B( 20-C , 23-N ) :   2.9621 B( 21-O , 22-C ) :   0.9564
B( 22-C , 36-H ) :   0.9811 B( 22-C , 37-H ) :   0.9692 B( 22-C , 38-H ) :   0.9670

FINAL SINGLE POINT ENERGY      -976.034763725906

DIPOLE MOMENT
-------------
                                X             Y             Z
Electronic contribution:     -8.40287      15.82577      -2.83436
Nuclear contribution   :     10.29668     -18.63965       3.38526
                        -----------------------------------------
Total Dipole Moment    :      1.89380      -2.81389       0.55090
                        -----------------------------------------
Magnitude (a.u.)       :      3.43627
Magnitude (Debye)      :      8.73430

VIBRATIONAL FREQUENCIES
-----------------------

Scaling factor for frequencies =  1.000000000  (already applied!)

   0:         0.00 cm**-1
   1:         0.00 cm**-1
   2:         0.00 cm**-1
   3:         0.00 cm**-1
   4:         0.00 cm**-1
   5:         0.00 cm**-1
   6:       -44.50 cm**-1 ***imaginary mode***
   7:        20.81 cm**-1
   8:        37.60 cm**-1
   9:        57.30 cm**-1
  10:        65.78 cm**-1
  11:        89.84 cm**-1
  12:        98.49 cm**-1
  13:       115.33 cm**-1
  14:       142.62 cm**-1
  15:       156.28 cm**-1
  16:       200.84 cm**-1
  17:       214.82 cm**-1
  18:       223.86 cm**-1
  19:       241.93 cm**-1
  20:       264.59 cm**-1
  21:       265.88 cm**-1
  22:       299.19 cm**-1
  23:       322.53 cm**-1
  24:       367.65 cm**-1
  25:       401.31 cm**-1
  26:       420.84 cm**-1
  27:       451.06 cm**-1
  28:       478.35 cm**-1
  29:       493.84 cm**-1
  30:       505.53 cm**-1
  31:       522.59 cm**-1
  32:       528.07 cm**-1
  33:       543.83 cm**-1
  34:       560.84 cm**-1
  35:       565.89 cm**-1
  36:       581.78 cm**-1
  37:       614.99 cm**-1
  38:       630.77 cm**-1
  39:       678.09 cm**-1
  40:       702.55 cm**-1
  41:       719.03 cm**-1
  42:       754.47 cm**-1
  43:       762.05 cm**-1
  44:       781.28 cm**-1
  45:       815.30 cm**-1
  46:       817.02 cm**-1
  47:       831.79 cm**-1
  48:       851.90 cm**-1
  49:       856.77 cm**-1
  50:       876.28 cm**-1
  51:       884.84 cm**-1
  52:       890.16 cm**-1
  53:       942.11 cm**-1
  54:       947.43 cm**-1
  55:       985.09 cm**-1
  56:       988.10 cm**-1
  57:       993.80 cm**-1
  58:       999.20 cm**-1
  59:      1001.85 cm**-1
  60:      1012.56 cm**-1
  61:      1016.53 cm**-1
  62:      1039.65 cm**-1
  63:      1046.97 cm**-1
  64:      1120.50 cm**-1
  65:      1131.33 cm**-1
  66:      1169.62 cm**-1
  67:      1171.00 cm**-1
  68:      1181.63 cm**-1
  69:      1188.35 cm**-1
  70:      1200.80 cm**-1
  71:      1210.86 cm**-1
  72:      1241.11 cm**-1
  73:      1257.82 cm**-1
  74:      1265.16 cm**-1
  75:      1271.88 cm**-1
  76:      1280.52 cm**-1
  77:      1293.39 cm**-1
  78:      1309.40 cm**-1
  79:      1331.14 cm**-1
  80:      1340.44 cm**-1
  81:      1371.10 cm**-1
  82:      1372.15 cm**-1
  83:      1405.69 cm**-1
  84:      1406.77 cm**-1
  85:      1424.32 cm**-1
  86:      1442.01 cm**-1
  87:      1464.93 cm**-1
  88:      1466.50 cm**-1
  89:      1470.16 cm**-1
  90:      1475.02 cm**-1
  91:      1504.28 cm**-1
  92:      1536.29 cm**-1
  93:      1546.38 cm**-1
  94:      1575.04 cm**-1
  95:      1622.04 cm**-1
  96:      1637.62 cm**-1
  97:      1656.50 cm**-1
  98:      1663.87 cm**-1
  99:      1675.26 cm**-1
 100:      1717.32 cm**-1
 101:      2336.63 cm**-1
 102:      2996.20 cm**-1
 103:      3069.02 cm**-1
 104:      3134.81 cm**-1
 105:      3145.96 cm**-1
 106:      3170.98 cm**-1
 107:      3173.88 cm**-1
 108:      3174.31 cm**-1
 109:      3175.82 cm**-1
 110:      3179.16 cm**-1
 111:      3186.57 cm**-1
 112:      3191.89 cm**-1
 113:      3199.31 cm**-1
 114:      3200.86 cm**-1
 115:      3216.32 cm**-1
 116:      3222.38 cm**-1

IR SPECTRUM
-----------

 Mode   freq       eps      Int      T**2         TX        TY        TZ
       cm**-1   L/(mol*cm) km/mol    a.u.
----------------------------------------------------------------------------
  7:     20.81   0.000057    0.29  0.000855  ( 0.002533 -0.028954  0.003143)
  8:     37.60   0.000943    4.76  0.007824  (-0.006982 -0.041173 -0.077976)
  9:     57.30   0.000113    0.57  0.000615  ( 0.005617 -0.013334 -0.020136)
 10:     65.78   0.000324    1.64  0.001536  ( 0.019855  0.033753  0.001640)
 11:     89.84   0.000415    2.10  0.001443  ( 0.026739  0.026828  0.002814)
 12:     98.49   0.000184    0.93  0.000582  (-0.000586  0.014382 -0.019362)
 13:    115.33   0.000170    0.86  0.000461  (-0.009777  0.018578  0.004460)
 14:    142.62   0.000047    0.24  0.000103  ( 0.002576 -0.009801  0.000322)
 15:    156.28   0.000425    2.15  0.000848  ( 0.004011 -0.013623 -0.025426)
 16:    200.84   0.000088    0.45  0.000137  ( 0.003672 -0.009965 -0.004925)
 17:    214.82   0.001008    5.09  0.001464  (-0.004968 -0.027695  0.025934)
 18:    223.86   0.001281    6.47  0.001785  ( 0.005078  0.020642  0.036513)
 19:    241.93   0.000151    0.76  0.000195  (-0.011728 -0.007489  0.001221)
 20:    264.59   0.000040    0.20  0.000047  (-0.006021  0.001107 -0.003081)
 21:    265.88   0.000048    0.24  0.000057  ( 0.002501 -0.006711 -0.002336)
 22:    299.19   0.000134    0.68  0.000140  (-0.008765 -0.004710 -0.006402)
 23:    322.53   0.001460    7.38  0.001413  (-0.028361  0.024288  0.004306)
 24:    367.65   0.000207    1.05  0.000176  ( 0.009445 -0.008330 -0.004154)
 25:    401.31   0.003891   19.66  0.003026  (-0.034086  0.042408 -0.008090)
 26:    420.84   0.000469    2.37  0.000348  ( 0.009654 -0.015957  0.000386)
 27:    451.06   0.000402    2.03  0.000278  (-0.008346  0.012625  0.007004)
 28:    478.35   0.000597    3.02  0.000390  (-0.013353  0.014208 -0.003066)
 29:    493.84   0.000750    3.79  0.000474  ( 0.004565 -0.003524 -0.020994)
 30:    505.53   0.000090    0.46  0.000056  ( 0.002995 -0.006692 -0.001411)
 31:    522.59   0.001971    9.96  0.001177  (-0.008638  0.033144 -0.001886)
 32:    528.07   0.000296    1.50  0.000175  (-0.003616  0.012463  0.002550)
 33:    543.83   0.000465    2.35  0.000267  ( 0.015050 -0.006140  0.001694)
 34:    560.84   0.000025    0.12  0.000014  ( 0.002018 -0.003017  0.000683)
 35:    565.89   0.000008    0.04  0.000004  (-0.000250  0.001925  0.000691)
 36:    581.78   0.000551    2.79  0.000296  (-0.006395  0.007423  0.014131)
 37:    614.99   0.001963    9.92  0.000996  ( 0.014903 -0.027803 -0.000910)
 38:    630.77   0.000084    0.43  0.000042  (-0.005838  0.002665  0.000751)
 39:    678.09   0.000455    2.30  0.000209  ( 0.007154 -0.011318 -0.005485)
 40:    702.55   0.000174    0.88  0.000077  ( 0.005813 -0.006582  0.000129)
 41:    719.03   0.001003    5.07  0.000435  (-0.002081  0.002557  0.020604)
 42:    754.47   0.002409   12.17  0.000996  ( 0.003101  0.000765 -0.031404)
 43:    762.05   0.000509    2.57  0.000208  ( 0.005482 -0.003230  0.012960)
 44:    781.28   0.000258    1.31  0.000103  ( 0.003354 -0.009485  0.001409)
 45:    815.30   0.005415   27.36  0.002073  (-0.020026  0.040884 -0.000279)
 46:    817.02   0.000274    1.39  0.000105  (-0.001227  0.004930  0.008888)
 47:    831.79   0.001757    8.88  0.000659  ( 0.000465 -0.007339  0.024601)
 48:    851.90   0.000709    3.58  0.000260  ( 0.003113  0.005165  0.014946)
 49:    856.77   0.000221    1.12  0.000080  ( 0.004729  0.002359 -0.007247)
 50:    876.28   0.005532   27.96  0.001970  (-0.004655  0.002272 -0.044081)
 51:    884.84   0.000628    3.18  0.000222  ( 0.010484 -0.006887 -0.008016)
 52:    890.16   0.005438   27.48  0.001906  (-0.004992  0.003866  0.043202)
 53:    942.11   0.000440    2.22  0.000146  (-0.001320  0.001788 -0.011869)
 54:    947.43   0.009150   46.24  0.003014  ( 0.023093 -0.014572  0.047624)
 55:    985.09   0.003303   16.69  0.001046  (-0.000782  0.001612  0.032299)
 56:    988.10   0.004121   20.83  0.001302  (-0.017478  0.031508  0.001817)
 57:    993.80   0.000476    2.41  0.000149  (-0.000682  0.012037 -0.002024)
 58:    999.20   0.001349    6.82  0.000421  (-0.012241  0.016469  0.000448)
 59:   1001.85   0.001408    7.12  0.000439  ( 0.002751 -0.004623  0.020240)
 60:   1012.56   0.000057    0.29  0.000018  ( 0.000124  0.003573  0.002198)
 61:   1016.53   0.000020    0.10  0.000006  (-0.001939  0.001377  0.000661)
 62:   1039.65   0.001103    5.57  0.000331  ( 0.012851  0.010554 -0.007379)
 63:   1046.97   0.004969   25.11  0.001481  (-0.011544 -0.031130  0.019463)
 64:   1120.50   0.003935   19.89  0.001096  ( 0.006917 -0.031494  0.007504)
 65:   1131.33   0.000087    0.44  0.000024  (-0.002689  0.004041 -0.000580)
 66:   1169.62   0.002821   14.25  0.000753  (-0.008829  0.025955 -0.000996)
 67:   1171.00   0.036448  184.19  0.009713  (-0.039882  0.087222 -0.022689)
 68:   1181.63   0.003631   18.35  0.000959  ( 0.015366 -0.025847  0.007392)
 69:   1188.35   0.001897    9.59  0.000498  (-0.013388  0.017466 -0.003728)
 70:   1200.80   0.000953    4.81  0.000248  ( 0.006069  0.014473  0.001124)
 71:   1210.86   0.004068   20.56  0.001048  ( 0.030821 -0.008907  0.004373)
 72:   1241.11   0.019386   97.97  0.004874  (-0.035381  0.058911 -0.012332)
 73:   1257.82   0.099351  502.08  0.024649  ( 0.070573 -0.138648  0.021096)
 74:   1265.16   0.009050   45.73  0.002232  (-0.023205  0.041110 -0.001900)
 75:   1271.88   0.001492    7.54  0.000366  (-0.009336  0.015350 -0.006584)
 76:   1280.52   0.002209   11.16  0.000538  (-0.020153  0.011493  0.000437)
 77:   1293.39   0.089884  454.24  0.021687  ( 0.079518 -0.121232  0.025817)
 78:   1309.40   0.011222   56.71  0.002675  ( 0.027448 -0.042333  0.011362)
 79:   1331.14   0.004841   24.46  0.001135  ( 0.015843 -0.029473  0.003892)
 80:   1340.44   0.000607    3.07  0.000141  ( 0.000342 -0.011818  0.001220)
 81:   1371.10   0.001162    5.87  0.000264  ( 0.014287  0.005207 -0.005756)
 82:   1372.15   0.000290    1.47  0.000066  (-0.005210 -0.005493  0.002937)
 83:   1405.69   0.001357    6.86  0.000301  ( 0.010667 -0.012522  0.005546)
 84:   1406.77   0.001689    8.54  0.000375  ( 0.005040 -0.018140  0.004497)
 85:   1424.32   0.004678   23.64  0.001025  (-0.008799  0.030599 -0.003338)
 86:   1442.01   0.000621    3.14  0.000134  ( 0.006868 -0.009311  0.000643)
 87:   1464.93   0.000873    4.41  0.000186  ( 0.001056 -0.008368 -0.010712)
 88:   1466.50   0.001261    6.37  0.000268  ( 0.001205  0.015260  0.005825)
 89:   1470.16   0.000419    2.12  0.000089  ( 0.003992 -0.007954 -0.003111)
 90:   1475.02   0.020110  101.63  0.004255  ( 0.039280 -0.051096  0.010041)
 91:   1504.28   0.000502    2.54  0.000104  (-0.009129 -0.004515 -0.000716)
 92:   1536.29   0.000464    2.34  0.000094  ( 0.009579  0.001498  0.000421)
 93:   1546.38   0.002420   12.23  0.000488  ( 0.007728 -0.020704 -0.000156)
 94:   1575.04   0.004313   21.80  0.000855  ( 0.018572 -0.022336  0.003276)
 95:   1622.04   0.001687    8.52  0.000325  ( 0.004198 -0.017416  0.001888)
 96:   1637.62   0.059168  299.01  0.011275  (-0.056788  0.089261 -0.009085)
 97:   1656.50   0.009054   45.76  0.001706  ( 0.003666 -0.041135  0.000457)
 98:   1663.87   0.020809  105.16  0.003903  ( 0.034962 -0.051542  0.004872)
 99:   1675.26   0.001186    5.99  0.000221  (-0.000326  0.014646 -0.002503)
100:   1717.32   0.099735  504.02  0.018123  ( 0.064118 -0.116310  0.022005)
101:   2336.63   0.028955  146.33  0.003867  (-0.038356  0.048802 -0.003772)
102:   2996.20   0.033506  169.33  0.003490  ( 0.013706 -0.054234  0.018991)
103:   3069.02   0.007266   36.72  0.000739  ( 0.009996  0.009478  0.023432)
104:   3134.81   0.001962    9.91  0.000195  (-0.013355  0.002229  0.003455)
105:   3145.96   0.003757   18.99  0.000373  (-0.016907  0.008810  0.003041)
106:   3170.98   0.000222    1.12  0.000022  (-0.003660  0.002897 -0.000306)
107:   3173.88   0.000166    0.84  0.000016  (-0.002322 -0.003299  0.000046)
108:   3174.31   0.002511   12.69  0.000247  (-0.015665  0.000663 -0.000982)
109:   3175.82   0.003512   17.75  0.000345  (-0.017202  0.006933 -0.001062)
110:   3179.16   0.000687    3.47  0.000067  ( 0.006260  0.005312  0.000065)
111:   3186.57   0.001689    8.54  0.000165  (-0.007714  0.010284 -0.000399)
112:   3191.89   0.003986   20.14  0.000390  ( 0.005170  0.019050  0.000265)
113:   3199.31   0.002287   11.56  0.000223  ( 0.006344  0.013520 -0.000187)
114:   3200.86   0.000331    1.67  0.000032  (-0.003440  0.004508 -0.000303)
115:   3216.32   0.002184   11.04  0.000212  ( 0.014180 -0.003230  0.000636)
116:   3222.38   0.002702   13.66  0.000262  ( 0.015096 -0.005745  0.000884)

--------------------------
THERMOCHEMISTRY AT 298.15K
--------------------------

Temperature         ... 298.15 K
Pressure            ... 1.00 atm
Total Mass          ... 309.37 AMU

Throughout the following assumptions are being made:
  (1) The electronic state is orbitally nondegenerate
  (2) There are no thermally accessible electronically excited states
  (3) Hindered rotations indicated by low frequency modes are not
      treated as such but are treated as vibrations and this may
      cause some error
  (4) All equations used are the standard statistical mechanics
      equations for an ideal gas
  (5) All vibrations are strictly harmonic

freq.      20.81  E(vib)   ...       0.56
freq.      37.60  E(vib)   ...       0.54
freq.      57.30  E(vib)   ...       0.51
freq.      65.78  E(vib)   ...       0.50
freq.      89.84  E(vib)   ...       0.47
freq.      98.49  E(vib)   ...       0.46
freq.     115.33  E(vib)   ...       0.44
freq.     142.62  E(vib)   ...       0.41
freq.     156.28  E(vib)   ...       0.40
freq.     200.84  E(vib)   ...       0.35
freq.     214.82  E(vib)   ...       0.34
freq.     223.86  E(vib)   ...       0.33
freq.     241.93  E(vib)   ...       0.31
freq.     264.59  E(vib)   ...       0.29
freq.     265.88  E(vib)   ...       0.29
freq.     299.19  E(vib)   ...       0.26
freq.     322.53  E(vib)   ...       0.25
freq.     367.65  E(vib)   ...       0.21
freq.     401.31  E(vib)   ...       0.19
freq.     420.84  E(vib)   ...       0.18
freq.     451.06  E(vib)   ...       0.16
freq.     478.35  E(vib)   ...       0.15
freq.     493.84  E(vib)   ...       0.14
freq.     505.53  E(vib)   ...       0.14
freq.     522.59  E(vib)   ...       0.13
freq.     528.07  E(vib)   ...       0.13
freq.     543.83  E(vib)   ...       0.12
freq.     560.84  E(vib)   ...       0.11
freq.     565.89  E(vib)   ...       0.11
freq.     581.78  E(vib)   ...       0.11
freq.     614.99  E(vib)   ...       0.10
freq.     630.77  E(vib)   ...       0.09
freq.     678.09  E(vib)   ...       0.08
freq.     702.55  E(vib)   ...       0.07
freq.     719.03  E(vib)   ...       0.07
freq.     754.47  E(vib)   ...       0.06
freq.     762.05  E(vib)   ...       0.06
freq.     781.28  E(vib)   ...       0.05
freq.     815.30  E(vib)   ...       0.05
freq.     817.02  E(vib)   ...       0.05
freq.     831.79  E(vib)   ...       0.04
freq.     851.90  E(vib)   ...       0.04
freq.     856.77  E(vib)   ...       0.04
freq.     876.28  E(vib)   ...       0.04
freq.     884.84  E(vib)   ...       0.04
freq.     890.16  E(vib)   ...       0.04
freq.     942.11  E(vib)   ...       0.03
freq.     947.43  E(vib)   ...       0.03
freq.     985.09  E(vib)   ...       0.02
freq.     988.10  E(vib)   ...       0.02
freq.     993.80  E(vib)   ...       0.02
freq.     999.20  E(vib)   ...       0.02
freq.    1001.85  E(vib)   ...       0.02
freq.    1012.56  E(vib)   ...       0.02
freq.    1016.53  E(vib)   ...       0.02
freq.    1039.65  E(vib)   ...       0.02
freq.    1046.97  E(vib)   ...       0.02
freq.    1120.50  E(vib)   ...       0.01
freq.    1131.33  E(vib)   ...       0.01
freq.    1169.62  E(vib)   ...       0.01
freq.    1171.00  E(vib)   ...       0.01
freq.    1181.63  E(vib)   ...       0.01
freq.    1188.35  E(vib)   ...       0.01
freq.    1200.80  E(vib)   ...       0.01
freq.    1210.86  E(vib)   ...       0.01
freq.    1241.11  E(vib)   ...       0.01
freq.    1257.82  E(vib)   ...       0.01
freq.    1265.16  E(vib)   ...       0.01
freq.    1271.88  E(vib)   ...       0.01
freq.    1280.52  E(vib)   ...       0.01
freq.    1293.39  E(vib)   ...       0.01
freq.    1309.40  E(vib)   ...       0.01
freq.    1331.14  E(vib)   ...       0.01
freq.    1340.44  E(vib)   ...       0.01
freq.    1371.10  E(vib)   ...       0.01
freq.    1372.15  E(vib)   ...       0.01
freq.    1405.69  E(vib)   ...       0.00
freq.    1406.77  E(vib)   ...       0.00
freq.    1424.32  E(vib)   ...       0.00
freq.    1442.01  E(vib)   ...       0.00
freq.    1464.93  E(vib)   ...       0.00
freq.    1466.50  E(vib)   ...       0.00
freq.    1470.16  E(vib)   ...       0.00
freq.    1475.02  E(vib)   ...       0.00
freq.    1504.28  E(vib)   ...       0.00
freq.    1536.29  E(vib)   ...       0.00
freq.    1546.38  E(vib)   ...       0.00
freq.    1575.04  E(vib)   ...       0.00
freq.    1622.04  E(vib)   ...       0.00
freq.    1637.62  E(vib)   ...       0.00
freq.    1656.50  E(vib)   ...       0.00
freq.    1663.87  E(vib)   ...       0.00
freq.    1675.26  E(vib)   ...       0.00
freq.    1717.32  E(vib)   ...       0.00
freq.    2336.63  E(vib)   ...       0.00
freq.    2996.20  E(vib)   ...       0.00
freq.    3069.02  E(vib)   ...       0.00
freq.    3134.81  E(vib)   ...       0.00
freq.    3145.96  E(vib)   ...       0.00
freq.    3170.98  E(vib)   ...       0.00
freq.    3173.88  E(vib)   ...       0.00
freq.    3174.31  E(vib)   ...       0.00
freq.    3175.82  E(vib)   ...       0.00
freq.    3179.16  E(vib)   ...       0.00
freq.    3186.57  E(vib)   ...       0.00
freq.    3191.89  E(vib)   ...       0.00
freq.    3199.31  E(vib)   ...       0.00
freq.    3200.86  E(vib)   ...       0.00
freq.    3216.32  E(vib)   ...       0.00
freq.    3222.38  E(vib)   ...       0.00

------------
INNER ENERGY
------------

The inner energy is: U= E(el) + E(ZPE) + E(vib) + E(rot) + E(trans)
    E(el)   - is the total energy from the electronic structure calculation
              = E(kin-el) + E(nuc-el) + E(el-el) + E(nuc-nuc)
    E(ZPE)  - the the zero temperature vibrational energy from the frequency calculation
    E(vib)  - the the finite temperature correction to E(ZPE) due to population
              of excited vibrational states
    E(rot)  - is the rotational thermal energy
    E(trans)- is the translational thermal energy

Summary of contributions to the inner energy U:
Electronic energy                ...   -976.03476373 Eh
Zero point energy                ...      0.30493773 Eh     191.35 kcal/mol
Thermal vibrational correction   ...      0.01594965 Eh      10.01 kcal/mol
Thermal rotational correction    ...      0.00141627 Eh       0.89 kcal/mol
Thermal translational correction ...      0.00141627 Eh       0.89 kcal/mol
-----------------------------------------------------------------------
Total thermal energy                   -975.71104379 Eh

Summary of corrections to the electronic energy:
(perhaps to be used in another calculation)
Total thermal correction                  0.01878220 Eh      11.79 kcal/mol
Non-thermal (ZPE) correction              0.30493773 Eh     191.35 kcal/mol
-----------------------------------------------------------------------
Total correction                          0.32371993 Eh     203.14 kcal/mol

--------
ENTHALPY

Rotational constants in cm-1:     0.025722     0.003245     0.002893

                             ****ORCA TERMINATED NORMALLY****
TOTAL RUN TIME: 0 days 0 hours 51 minutes 37 seconds 520 msec
