                         Program Version 5.0.4 -  RELEASE  -
|  1> ! B3LYP def2-SVP Opt PAL8 FREQ defgrid3 slowconv VeryTightSCF
|  2> *xyz 0 1
|  3>   C      -7.217413      3.478866     -0.268637
|  4>   C      -5.951446      4.103154     -0.226802
|  5>   C      -4.776323      3.377690     -0.151212
|  6>   C      -4.799086      1.968572     -0.114946
|  7>   C      -3.596265      1.197053     -0.029071
|  8>   C      -3.626430     -0.168070      0.004087
|  9>   C      -4.862545     -0.898294     -0.053870
| 10>   C      -4.907145     -2.327436     -0.029002
| 11>   C      -6.170124     -2.955485     -0.074641
| 12>   C      -7.351812     -2.230600     -0.124685
| 13>   C      -7.338473     -0.823808     -0.154287
| 14>   C      -8.540914     -0.050883     -0.225954
| 15>   C      -8.515333      1.313914     -0.263932
| 16>   C      -7.278568      2.048265     -0.230912
| 17>   C      -6.056944      1.291036     -0.157170
| 18>   C      -6.082847     -0.144141     -0.123437
| 19>   C      -8.433983      4.282406     -0.349699
| 20>   C      -3.678602     -3.123684      0.029252
| 21>   C      -8.521629      5.635728     -0.414756
| 22>   C      -3.588494     -4.380264      0.511268
| 23>   C      -9.773826      6.312825     -0.493266
| 24>   O      -2.428344     -5.066513      0.481656
| 25>   C      -2.409668     -6.316367      1.144059
| 26>   N     -10.786674      6.881919     -0.558944
| 27>   H      -5.890018      5.192708     -0.251746
| 28>   H      -3.814269      3.895854     -0.117921
| 29>   H      -2.640511      1.726370      0.015428
| 30>   H      -2.686419     -0.713893      0.086190
| 31>   H      -6.220403     -4.046156     -0.104461
| 32>   H      -8.310985     -2.754515     -0.164817
| 33>   H      -9.498454     -0.578732     -0.251412
| 34>   H      -9.463969      1.846744     -0.319855
| 35>   H      -9.383411      3.745211     -0.361524
| 36>   H      -2.747526     -2.685937     -0.338160
| 37>   H      -7.637151      6.278923     -0.413083
| 38>   H      -4.444560     -4.904729      0.956018
| 39>   H      -1.416711     -6.755071      0.977106
| 40>   H      -2.571838     -6.202641      2.231445
| 41>   H      -3.175316     -7.002600      0.737684
| 42> *
| 43>
| 44>                          ****END OF INPUT****
 Total Charge           Charge          ....    0
 Multiplicity           Mult            ....    1
 Number of Electrons    NEL             ....  162
FINAL SINGLE POINT ENERGY      -976.034723782062
                    ***********************HURRAY********************

CARTESIAN COORDINATES (ANGSTROEM)
---------------------------------
  C     -7.216842    3.478899   -0.272013
  C     -5.951060    4.103682   -0.230140
  C     -4.775716    3.378474   -0.154161
  C     -4.798223    1.969240   -0.117351
  C     -3.595319    1.197891   -0.029938
  C     -3.625354   -0.167321    0.003984
  C     -4.861379   -0.897770   -0.054259
  C     -4.906202   -2.326947   -0.028176
  C     -6.169190   -2.955012   -0.073977
  C     -7.350786   -2.230239   -0.125945
  C     -7.337288   -0.823470   -0.157092
  C     -8.539739   -0.050760   -0.230895
  C     -8.514196    1.314032   -0.269496
  C     -7.277575    2.048406   -0.235366
  C     -6.055907    1.291418   -0.160405
  C     -6.081683   -0.143718   -0.125624
  C     -8.434115    4.281559   -0.349576
  C     -3.678330   -3.123972    0.030285
  C     -8.523308    5.634946   -0.411436
  C     -3.589642   -4.380538    0.512603
  C     -9.776333    6.311112   -0.483112
  O     -2.431011   -5.069144    0.480825
  C     -2.411858   -6.316906    1.147004
  N    -10.789811    6.879708   -0.543169
  H     -5.890053    5.193255   -0.254397
  H     -3.813824    3.896893   -0.120114
  H     -2.639705    1.727427    0.015201
  H     -2.685344   -0.713095    0.086818
  H     -6.219284   -4.045690   -0.102902
  H     -8.309930   -2.754163   -0.166427
  H     -9.497169   -0.578768   -0.256990
  H     -9.462783    1.846961   -0.326455
  H     -9.383026    3.743327   -0.359501
  H     -2.747081   -2.687678   -0.338322
  H     -7.639507    6.279078   -0.410352
  H     -4.445933   -4.903362    0.958829
  H     -1.420351   -6.757874    0.977281
  H     -2.569184   -6.199406    2.234734
  H     -3.180387   -7.003058    0.746019

 Multiplicity           Mult            ....    1
 Number of Electrons    NEL             ....  162
 Basis Dimension        Dim             ....  411

ORBITAL ENERGIES
----------------

  NO   OCC          E(Eh)            E(eV)
   0   2.0000     -19.177322      -521.8415
   1   2.0000     -14.313727      -389.4963
   2   2.0000     -10.257453      -279.1195
   3   2.0000     -10.255690      -279.0715
   4   2.0000     -10.223538      -278.1966
   5   2.0000     -10.221263      -278.1347
   6   2.0000     -10.215644      -277.9818
   7   2.0000     -10.214046      -277.9383
   8   2.0000     -10.212140      -277.8865
   9   2.0000     -10.211598      -277.8717
  10   2.0000     -10.207960      -277.7727
  11   2.0000     -10.207638      -277.7639
  12   2.0000     -10.206154      -277.7236
  13   2.0000     -10.205795      -277.7138
  14   2.0000     -10.202679      -277.6290
  15   2.0000     -10.201944      -277.6090
  16   2.0000     -10.200788      -277.5776
  17   2.0000     -10.200270      -277.5635
  18   2.0000     -10.199749      -277.5493
  19   2.0000     -10.199491      -277.5422
  20   2.0000     -10.198787      -277.5231
  21   2.0000     -10.198738      -277.5218
  22   2.0000     -10.197451      -277.4867
  23   2.0000     -10.189496      -277.2703
  24   2.0000      -1.071783       -29.1647
  25   2.0000      -0.893818       -24.3220
  26   2.0000      -0.883395       -24.0384
  27   2.0000      -0.858903       -23.3719
  28   2.0000      -0.833464       -22.6797
  29   2.0000      -0.820829       -22.3359
  30   2.0000      -0.792508       -21.5652
  31   2.0000      -0.784913       -21.3586
  32   2.0000      -0.759368       -20.6635
  33   2.0000      -0.746601       -20.3160
  34   2.0000      -0.732582       -19.9346
  35   2.0000      -0.721855       -19.6427
  36   2.0000      -0.687066       -18.6960
  37   2.0000      -0.656707       -17.8699
  38   2.0000      -0.636513       -17.3204
  39   2.0000      -0.629577       -17.1317
  40   2.0000      -0.618027       -16.8174
  41   2.0000      -0.598525       -16.2867
  42   2.0000      -0.583631       -15.8814
  43   2.0000      -0.550911       -14.9910
  44   2.0000      -0.537775       -14.6336
  45   2.0000      -0.533407       -14.5147
  46   2.0000      -0.523838       -14.2544
  47   2.0000      -0.512774       -13.9533
  48   2.0000      -0.507114       -13.7993
  49   2.0000      -0.497642       -13.5415
  50   2.0000      -0.481230       -13.0949
  51   2.0000      -0.477140       -12.9836
  52   2.0000      -0.463485       -12.6121
  53   2.0000      -0.453478       -12.3398
  54   2.0000      -0.450285       -12.2529
  55   2.0000      -0.439518       -11.9599
  56   2.0000      -0.429247       -11.6804
  57   2.0000      -0.423714       -11.5299
  58   2.0000      -0.420151       -11.4329
  59   2.0000      -0.409591       -11.1455
  60   2.0000      -0.405785       -11.0420
  61   2.0000      -0.401271       -10.9192
  62   2.0000      -0.395292       -10.7564
  63   2.0000      -0.385881       -10.5004
  64   2.0000      -0.383836       -10.4447
  65   2.0000      -0.369647       -10.0586
  66   2.0000      -0.365975        -9.9587
  67   2.0000      -0.362211        -9.8563
  68   2.0000      -0.352373        -9.5886
  69   2.0000      -0.348266        -9.4768
  70   2.0000      -0.347165        -9.4468
  71   2.0000      -0.340921        -9.2769
  72   2.0000      -0.328913        -8.9502
  73   2.0000      -0.322749        -8.7824
  74   2.0000      -0.321872        -8.7586
  75   2.0000      -0.296796        -8.0762
  76   2.0000      -0.277276        -7.5451
  77   2.0000      -0.266274        -7.2457
  78   2.0000      -0.243081        -6.6146
  79   2.0000      -0.235300        -6.4028
  80   2.0000      -0.195535        -5.3208
  81   0.0000      -0.089653        -2.4396
  82   0.0000      -0.049709        -1.3526
  83   0.0000      -0.039314        -1.0698
  84   0.0000      -0.017458        -0.4751
  85   0.0000       0.004585         0.1248

MULLIKEN ATOMIC CHARGES
-----------------------
   0 C :    0.060407
   1 C :   -0.022487
   2 C :   -0.030261
   3 C :    0.071093
   4 C :   -0.010085
   5 C :   -0.031135
   6 C :    0.057405
   7 C :    0.076000
   8 C :   -0.038485
   9 C :   -0.027472
  10 C :    0.064343
  11 C :   -0.006481
  12 C :   -0.042353
  13 C :    0.082904
  14 C :    0.055877
  15 C :    0.064491
  16 C :    0.023251
  17 C :   -0.039960
  18 C :   -0.122802
  19 C :    0.131202
  20 C :   -0.099308
  21 O :   -0.300168
  22 C :    0.179001
  23 N :    0.034190
  24 H :   -0.026669
  25 H :   -0.030065
  26 H :   -0.030931
  27 H :   -0.028185
  28 H :   -0.033289
  29 H :   -0.030683
  30 H :   -0.029500
  31 H :   -0.030144
  32 H :    0.003223
  33 H :   -0.000331
  34 H :    0.034857
  35 H :   -0.006690
  36 H :    0.038703
  37 H :    0.021805
  38 H :    0.018733
Sum of atomic charges:   -0.0000000

LOEWDIN ATOMIC CHARGES
----------------------
   0 C :   -0.037558
   1 C :   -0.006117
   2 C :   -0.020636
   3 C :   -0.007289
   4 C :   -0.018585
   5 C :   -0.007970
   6 C :   -0.017433
   7 C :   -0.005060
   8 C :   -0.026413
   9 C :   -0.011844
  10 C :   -0.024820
  11 C :   -0.006006
  12 C :   -0.026214
  13 C :    0.001910
  14 C :    0.001693
  15 C :    0.004238
  16 C :    0.032964
  17 C :   -0.082701
  18 C :   -0.076435
  19 C :    0.063851
  20 C :   -0.037374
  21 O :   -0.096860
  22 C :    0.080714
  23 N :   -0.079465
  24 H :    0.027760
  25 H :    0.028676
  26 H :    0.028673
  27 H :    0.028704
  28 H :    0.023486
  29 H :    0.028077
  30 H :    0.029599
  31 H :    0.027321
  32 H :    0.036035
  33 H :    0.031992
  34 H :    0.043100
  35 H :    0.011511
  36 H :    0.029321
  37 H :    0.015024
  38 H :    0.014128

  Mayer bond orders larger than 0.100000
B(  0-C ,  1-C ) :   1.3047 B(  0-C , 13-C ) :   1.2503 B(  0-C , 16-C ) :   1.1240
B(  1-C ,  2-C ) :   1.4040 B(  1-C , 24-H ) :   0.9761 B(  2-C ,  3-C ) :   1.2650
B(  2-C , 25-H ) :   0.9878 B(  3-C ,  4-C ) :   1.1641 B(  3-C , 14-C ) :   1.2417
B(  4-C ,  5-C ) :   1.5298 B(  4-C , 26-H ) :   0.9850 B(  5-C ,  6-C ) :   1.1720
B(  5-C , 27-H ) :   0.9769 B(  6-C ,  7-C ) :   1.2700 B(  6-C , 15-C ) :   1.2318
B(  7-C ,  8-C ) :   1.3229 B(  7-C , 17-C ) :   1.0859 B(  8-C ,  9-C ) :   1.3806
B(  8-C , 28-H ) :   0.9765 B(  9-C , 10-C ) :   1.2796 B(  9-C , 29-H ) :   0.9871
B( 10-C , 11-C ) :   1.1585 B( 10-C , 15-C ) :   1.2418 B( 11-C , 12-C ) :   1.5429
B( 11-C , 30-H ) :   0.9829 B( 12-C , 13-C ) :   1.1673 B( 12-C , 31-H ) :   0.9780
B( 13-C , 14-C ) :   1.2350 B( 14-C , 15-C ) :   1.2283 B( 16-C , 18-C ) :   1.7394
B( 16-C , 32-H ) :   0.9602 B( 17-C , 19-C ) :   1.7181 B( 17-C , 33-H ) :   0.9506
B( 18-C , 20-C ) :   1.1093 B( 18-C , 34-H ) :   0.9435 B( 19-C , 21-O ) :   1.1423
B( 19-C , 35-H ) :   0.9528 B( 20-C , 23-N ) :   2.9620 B( 21-O , 22-C ) :   0.9565
B( 22-C , 36-H ) :   0.9811 B( 22-C , 37-H ) :   0.9692 B( 22-C , 38-H ) :   0.9670

FINAL SINGLE POINT ENERGY      -976.034726314923

DIPOLE MOMENT
-------------
                                X             Y             Z
Electronic contribution:     -8.39924      15.82353      -2.84127
Nuclear contribution   :     10.29448     -18.63570       3.38769
                        -----------------------------------------
Total Dipole Moment    :      1.89524      -2.81217       0.54642
                        -----------------------------------------
Magnitude (a.u.)       :      3.43494
Magnitude (Debye)      :      8.73092

VIBRATIONAL FREQUENCIES
-----------------------

Scaling factor for frequencies =  1.000000000  (already applied!)

   0:         0.00 cm**-1
   1:         0.00 cm**-1
   2:         0.00 cm**-1
   3:         0.00 cm**-1
   4:         0.00 cm**-1
   5:         0.00 cm**-1
   6:       -44.86 cm**-1 ***imaginary mode***
   7:        20.85 cm**-1
   8:        36.73 cm**-1
   9:        57.14 cm**-1
  10:        65.56 cm**-1
  11:        89.78 cm**-1
  12:        98.51 cm**-1
  13:       115.24 cm**-1
  14:       142.61 cm**-1
  15:       156.11 cm**-1
  16:       200.51 cm**-1
  17:       214.68 cm**-1
  18:       223.62 cm**-1
  19:       241.90 cm**-1
  20:       264.39 cm**-1
  21:       265.87 cm**-1
  22:       299.12 cm**-1
  23:       322.60 cm**-1
  24:       367.58 cm**-1
  25:       401.33 cm**-1
  26:       420.79 cm**-1
  27:       451.01 cm**-1
  28:       478.33 cm**-1
  29:       493.82 cm**-1
  30:       505.57 cm**-1
  31:       522.72 cm**-1
  32:       528.02 cm**-1
  33:       543.80 cm**-1
  34:       560.84 cm**-1
  35:       565.86 cm**-1
  36:       581.73 cm**-1
  37:       614.94 cm**-1
  38:       630.75 cm**-1
  39:       678.04 cm**-1
  40:       702.54 cm**-1
  41:       718.99 cm**-1
  42:       754.52 cm**-1
  43:       762.06 cm**-1
  44:       781.29 cm**-1
  45:       815.36 cm**-1
  46:       817.08 cm**-1
  47:       831.82 cm**-1
  48:       851.93 cm**-1
  49:       856.83 cm**-1
  50:       876.30 cm**-1
  51:       884.84 cm**-1
  52:       890.20 cm**-1
  53:       942.02 cm**-1
  54:       947.40 cm**-1
  55:       985.25 cm**-1
  56:       988.15 cm**-1
  57:       993.86 cm**-1
  58:       999.13 cm**-1
  59:      1001.95 cm**-1
  60:      1012.69 cm**-1
  61:      1016.58 cm**-1
  62:      1039.79 cm**-1
  63:      1047.06 cm**-1
  64:      1120.51 cm**-1
  65:      1131.40 cm**-1
  66:      1169.62 cm**-1
  67:      1171.06 cm**-1
  68:      1181.62 cm**-1
  69:      1188.44 cm**-1
  70:      1200.84 cm**-1
  71:      1210.83 cm**-1
  72:      1241.07 cm**-1
  73:      1257.91 cm**-1
  74:      1265.10 cm**-1
  75:      1271.96 cm**-1
  76:      1280.61 cm**-1
  77:      1293.36 cm**-1
  78:      1309.37 cm**-1
  79:      1331.25 cm**-1
  80:      1340.48 cm**-1
  81:      1371.12 cm**-1
  82:      1372.25 cm**-1
  83:      1405.77 cm**-1
  84:      1406.80 cm**-1
  85:      1424.36 cm**-1
  86:      1442.01 cm**-1
  87:      1464.87 cm**-1
  88:      1466.57 cm**-1
  89:      1470.24 cm**-1
  90:      1475.02 cm**-1
  91:      1504.30 cm**-1
  92:      1536.19 cm**-1
  93:      1546.42 cm**-1
  94:      1574.87 cm**-1
  95:      1621.94 cm**-1
  96:      1637.61 cm**-1
  97:      1656.51 cm**-1
  98:      1663.63 cm**-1
  99:      1675.17 cm**-1
 100:      1717.30 cm**-1
 101:      2336.71 cm**-1
 102:      2996.12 cm**-1
 103:      3069.04 cm**-1
 104:      3134.77 cm**-1
 105:      3145.78 cm**-1
 106:      3171.15 cm**-1
 107:      3173.97 cm**-1
 108:      3174.48 cm**-1
 109:      3175.88 cm**-1
 110:      3179.16 cm**-1
 111:      3186.76 cm**-1
 112:      3192.28 cm**-1
 113:      3199.69 cm**-1
 114:      3200.47 cm**-1
 115:      3216.05 cm**-1
 116:      3221.90 cm**-1

IR SPECTRUM
-----------

 Mode   freq       eps      Int      T**2         TX        TY        TZ
       cm**-1   L/(mol*cm) km/mol    a.u.
----------------------------------------------------------------------------
  7:     20.85   0.000057    0.29  0.000848  ( 0.002686 -0.028795  0.003448)
  8:     36.73   0.000946    4.78  0.008036  (-0.007481 -0.042753 -0.078438)
  9:     57.14   0.000115    0.58  0.000627  ( 0.005664 -0.013147 -0.020544)
 10:     65.56   0.000325    1.64  0.001545  ( 0.019734  0.033979  0.001118)
 11:     89.78   0.000407    2.06  0.001415  ( 0.026718  0.026285  0.003137)
 12:     98.51   0.000187    0.94  0.000592  ( 0.000090  0.014729 -0.019375)
 13:    115.24   0.000161    0.82  0.000437  (-0.009593  0.018086  0.004205)
 14:    142.61   0.000042    0.21  0.000091  ( 0.002202 -0.009274  0.000346)
 15:    156.11   0.000425    2.15  0.000849  ( 0.003997 -0.013771 -0.025368)
 16:    200.51   0.000087    0.44  0.000135  ( 0.003388 -0.010100 -0.004658)
 17:    214.68   0.001006    5.08  0.001462  (-0.005016 -0.027884  0.025682)
 18:    223.62   0.001279    6.47  0.001785  ( 0.005042  0.020377  0.036670)
 19:    241.90   0.000152    0.77  0.000197  (-0.011714 -0.007630  0.001114)
 20:    264.39   0.000041    0.21  0.000048  (-0.006122  0.001446 -0.002986)
 21:    265.87   0.000050    0.25  0.000059  ( 0.002411 -0.006841 -0.002430)
 22:    299.12   0.000136    0.69  0.000142  (-0.008962 -0.004625 -0.006339)
 23:    322.60   0.001460    7.38  0.001412  (-0.028295  0.024340  0.004377)
 24:    367.58   0.000203    1.03  0.000173  ( 0.009354 -0.008239 -0.004158)
 25:    401.33   0.003930   19.86  0.003056  (-0.034189  0.042683 -0.008050)
 26:    420.79   0.000468    2.37  0.000347  ( 0.009653 -0.015932  0.000365)
 27:    451.01   0.000402    2.03  0.000278  (-0.008324  0.012628  0.007042)
 28:    478.33   0.000608    3.07  0.000397  (-0.013410  0.014394 -0.003148)
 29:    493.82   0.000745    3.77  0.000471  ( 0.004504 -0.003464 -0.020945)
 30:    505.57   0.000096    0.49  0.000060  ( 0.003075 -0.006906 -0.001545)
 31:    522.72   0.001976    9.99  0.001180  (-0.008692  0.033177 -0.001887)
 32:    528.02   0.000285    1.44  0.000168  (-0.003557  0.012207  0.002556)
 33:    543.80   0.000453    2.29  0.000260  ( 0.014907 -0.005895  0.001708)
 34:    560.84   0.000023    0.12  0.000013  ( 0.001918 -0.002950  0.000678)
 35:    565.86   0.000008    0.04  0.000005  (-0.000305  0.001981  0.000705)
 36:    581.73   0.000547    2.77  0.000294  (-0.006387  0.007382  0.014086)
 37:    614.94   0.001962    9.91  0.000996  ( 0.014914 -0.027790 -0.000976)
 38:    630.75   0.000084    0.43  0.000042  (-0.005826  0.002674  0.000772)
 39:    678.04   0.000453    2.29  0.000208  ( 0.007113 -0.011307 -0.005469)
 40:    702.54   0.000171    0.86  0.000076  ( 0.005808 -0.006484  0.000135)
 41:    718.99   0.001006    5.08  0.000437  (-0.002091  0.002530  0.020635)
 42:    754.52   0.002400   12.13  0.000993  ( 0.003143  0.000732 -0.031341)
 43:    762.06   0.000511    2.58  0.000209  ( 0.005434 -0.003204  0.013025)
 44:    781.29   0.000264    1.34  0.000106  ( 0.003428 -0.009579  0.001445)
 45:    815.36   0.005424   27.41  0.002076  (-0.020024  0.040924 -0.000200)
 46:    817.08   0.000272    1.38  0.000104  (-0.001188  0.004717  0.008964)
 47:    831.82   0.001769    8.94  0.000664  ( 0.000570 -0.007754  0.024558)
 48:    851.93   0.000720    3.64  0.000264  ( 0.003209  0.005125  0.015074)
 49:    856.83   0.000220    1.11  0.000080  ( 0.004725  0.002155 -0.007284)
 50:    876.30   0.005477   27.68  0.001951  (-0.004436  0.001883 -0.043902)
 51:    884.84   0.000646    3.26  0.000228  ( 0.010549 -0.006826 -0.008360)
 52:    890.20   0.005439   27.48  0.001907  (-0.004745  0.003512  0.043263)
 53:    942.02   0.000444    2.25  0.000147  (-0.001386  0.001850 -0.011910)
 54:    947.40   0.009229   46.64  0.003040  ( 0.023427 -0.014999  0.047604)
 55:    985.25   0.003266   16.50  0.001034  (-0.000864  0.001885  0.032096)
 56:    988.15   0.004098   20.71  0.001294  (-0.017405  0.031442  0.001648)
 57:    993.86   0.000466    2.35  0.000146  (-0.000574  0.011909 -0.002022)
 58:    999.13   0.001357    6.86  0.000424  (-0.012179  0.016599  0.000326)
 59:   1001.95   0.001445    7.30  0.000450  ( 0.002664 -0.004563  0.020546)
 60:   1012.69   0.000057    0.29  0.000017  ( 0.000162  0.003490  0.002286)
 61:   1016.58   0.000019    0.10  0.000006  (-0.001917  0.001349  0.000621)
 62:   1039.79   0.001130    5.71  0.000339  ( 0.012953  0.010659 -0.007599)
 63:   1047.06   0.004912   24.82  0.001464  (-0.011511 -0.030814  0.019543)
 64:   1120.51   0.003891   19.66  0.001084  ( 0.006809 -0.031311  0.007545)
 65:   1131.40   0.000088    0.44  0.000024  (-0.002680  0.004083 -0.000581)
 66:   1169.62   0.002809   14.20  0.000750  (-0.008742  0.025923 -0.001037)
 67:   1171.06   0.036242  183.15  0.009658  (-0.039687  0.086993 -0.022694)
 68:   1181.62   0.003715   18.77  0.000981  ( 0.015588 -0.026123  0.007465)
 69:   1188.44   0.001818    9.19  0.000477  (-0.013151  0.017060 -0.003648)
 70:   1200.84   0.000952    4.81  0.000247  ( 0.005902  0.014535  0.001126)
 71:   1210.83   0.004047   20.45  0.001043  ( 0.030795 -0.008698  0.004354)
 72:   1241.07   0.019374   97.91  0.004872  (-0.035285  0.058929 -0.012404)
 73:   1257.91   0.099268  501.66  0.024626  ( 0.070517 -0.138597  0.021089)
 74:   1265.10   0.008987   45.41  0.002217  (-0.023084  0.040993 -0.001853)
 75:   1271.96   0.001487    7.51  0.000365  (-0.009381  0.015264 -0.006616)
 76:   1280.61   0.002265   11.45  0.000552  (-0.020328  0.011774  0.000423)
 77:   1293.36   0.089512  452.36  0.021598  ( 0.079240 -0.121051  0.025792)
 78:   1309.37   0.011812   59.69  0.002815  ( 0.028172 -0.043442  0.011589)
 79:   1331.25   0.005004   25.29  0.001173  ( 0.016027 -0.030015  0.003912)
 80:   1340.48   0.000602    3.04  0.000140  ( 0.000279 -0.011764  0.001246)
 81:   1371.12   0.001128    5.70  0.000257  ( 0.014131  0.004965 -0.005692)
 82:   1372.25   0.000330    1.67  0.000075  (-0.005799 -0.005593  0.003170)
 83:   1405.77   0.001312    6.63  0.000291  ( 0.010575 -0.012223  0.005479)
 84:   1406.80   0.001720    8.69  0.000381  ( 0.005245 -0.018249  0.004569)
 85:   1424.36   0.004733   23.92  0.001037  (-0.008887  0.030768 -0.003371)
 86:   1442.01   0.000622    3.14  0.000135  ( 0.006859 -0.009333  0.000621)
 87:   1464.87   0.000900    4.55  0.000192  ( 0.001211 -0.008816 -0.010604)
 88:   1466.57   0.001268    6.41  0.000270  ( 0.001085  0.015416  0.005573)
 89:   1470.24   0.000459    2.32  0.000097  (-0.004016  0.008397  0.003285)
 90:   1475.02   0.020140  101.78  0.004261  ( 0.039352 -0.051084  0.010142)
 91:   1504.30   0.000499    2.52  0.000104  (-0.009090 -0.004525 -0.000712)
 92:   1536.19   0.000450    2.27  0.000091  ( 0.009404  0.001682  0.000420)
 93:   1546.42   0.002391   12.08  0.000482  ( 0.007716 -0.020563 -0.000180)
 94:   1574.87   0.004280   21.63  0.000848  ( 0.018537 -0.022223  0.003267)
 95:   1621.94   0.001765    8.92  0.000340  ( 0.004476 -0.017771  0.001932)
 96:   1637.61   0.058928  297.80  0.011229  (-0.056699  0.089068 -0.009024)
 97:   1656.51   0.008741   44.17  0.001647  ( 0.003298 -0.040444  0.000319)
 98:   1663.63   0.021281  107.55  0.003992  ( 0.035081 -0.052323  0.004853)
 99:   1675.17   0.001122    5.67  0.000209  (-0.000010  0.014243 -0.002489)
100:   1717.30   0.099899  504.85  0.018153  ( 0.064091 -0.116453  0.022011)
101:   2336.71   0.028949  146.30  0.003866  (-0.038387  0.048779 -0.003617)
102:   2996.12   0.033310  168.33  0.003469  ( 0.013620 -0.054016  0.019136)
103:   3069.04   0.007274   36.76  0.000740  ( 0.010094  0.009567  0.023372)
104:   3134.77   0.001991   10.06  0.000198  (-0.013439  0.002346  0.003474)
105:   3145.78   0.003762   19.01  0.000373  (-0.016920  0.008810  0.003046)
106:   3171.15   0.000225    1.14  0.000022  (-0.003826  0.002724 -0.000324)
107:   3173.97   0.000154    0.78  0.000015  (-0.002100 -0.003269  0.000040)
108:   3174.48   0.002518   12.72  0.000248  (-0.015691  0.000537 -0.001015)
109:   3175.88   0.003575   18.07  0.000351  (-0.017350  0.007012 -0.001058)
110:   3179.16   0.000702    3.55  0.000069  ( 0.006420  0.005260  0.000105)
111:   3186.76   0.001687    8.52  0.000165  (-0.007719  0.010269 -0.000376)
112:   3192.28   0.003972   20.07  0.000388  ( 0.005112  0.019027  0.000259)
113:   3199.69   0.002397   12.12  0.000234  ( 0.005586  0.014232 -0.000265)
114:   3200.47   0.000234    1.18  0.000023  (-0.004381  0.001881 -0.000225)
115:   3216.05   0.002215   11.19  0.000215  ( 0.014283 -0.003243  0.000663)
116:   3221.90   0.002732   13.81  0.000265  ( 0.015189 -0.005752  0.000910)

--------------------------
THERMOCHEMISTRY AT 298.15K
--------------------------

Temperature         ... 298.15 K
Pressure            ... 1.00 atm
Total Mass          ... 309.37 AMU

Throughout the following assumptions are being made:
  (1) The electronic state is orbitally nondegenerate
  (2) There are no thermally accessible electronically excited states
  (3) Hindered rotations indicated by low frequency modes are not
      treated as such but are treated as vibrations and this may
      cause some error
  (4) All equations used are the standard statistical mechanics
      equations for an ideal gas
  (5) All vibrations are strictly harmonic

freq.      20.85  E(vib)   ...       0.56
freq.      36.73  E(vib)   ...       0.54
freq.      57.14  E(vib)   ...       0.51
freq.      65.56  E(vib)   ...       0.50
freq.      89.78  E(vib)   ...       0.47
freq.      98.51  E(vib)   ...       0.46
freq.     115.24  E(vib)   ...       0.44
freq.     142.61  E(vib)   ...       0.41
freq.     156.11  E(vib)   ...       0.40
freq.     200.51  E(vib)   ...       0.35
freq.     214.68  E(vib)   ...       0.34
freq.     223.62  E(vib)   ...       0.33
freq.     241.90  E(vib)   ...       0.31
freq.     264.39  E(vib)   ...       0.29
freq.     265.87  E(vib)   ...       0.29
freq.     299.12  E(vib)   ...       0.26
freq.     322.60  E(vib)   ...       0.25
freq.     367.58  E(vib)   ...       0.21
freq.     401.33  E(vib)   ...       0.19
freq.     420.79  E(vib)   ...       0.18
freq.     451.01  E(vib)   ...       0.17
freq.     478.33  E(vib)   ...       0.15
freq.     493.82  E(vib)   ...       0.14
freq.     505.57  E(vib)   ...       0.14
freq.     522.72  E(vib)   ...       0.13
freq.     528.02  E(vib)   ...       0.13
freq.     543.80  E(vib)   ...       0.12
freq.     560.84  E(vib)   ...       0.11
freq.     565.86  E(vib)   ...       0.11
freq.     581.73  E(vib)   ...       0.11
freq.     614.94  E(vib)   ...       0.10
freq.     630.75  E(vib)   ...       0.09
freq.     678.04  E(vib)   ...       0.08
freq.     702.54  E(vib)   ...       0.07
freq.     718.99  E(vib)   ...       0.07
freq.     754.52  E(vib)   ...       0.06
freq.     762.06  E(vib)   ...       0.06
freq.     781.29  E(vib)   ...       0.05
freq.     815.36  E(vib)   ...       0.05
freq.     817.08  E(vib)   ...       0.05
freq.     831.82  E(vib)   ...       0.04
freq.     851.93  E(vib)   ...       0.04
freq.     856.83  E(vib)   ...       0.04
freq.     876.30  E(vib)   ...       0.04
freq.     884.84  E(vib)   ...       0.04
freq.     890.20  E(vib)   ...       0.04
freq.     942.02  E(vib)   ...       0.03
freq.     947.40  E(vib)   ...       0.03
freq.     985.25  E(vib)   ...       0.02
freq.     988.15  E(vib)   ...       0.02
freq.     993.86  E(vib)   ...       0.02
freq.     999.13  E(vib)   ...       0.02
freq.    1001.95  E(vib)   ...       0.02
freq.    1012.69  E(vib)   ...       0.02
freq.    1016.58  E(vib)   ...       0.02
freq.    1039.79  E(vib)   ...       0.02
freq.    1047.06  E(vib)   ...       0.02
freq.    1120.51  E(vib)   ...       0.01
freq.    1131.40  E(vib)   ...       0.01
freq.    1169.62  E(vib)   ...       0.01
freq.    1171.06  E(vib)   ...       0.01
freq.    1181.62  E(vib)   ...       0.01
freq.    1188.44  E(vib)   ...       0.01
freq.    1200.84  E(vib)   ...       0.01
freq.    1210.83  E(vib)   ...       0.01
freq.    1241.07  E(vib)   ...       0.01
freq.    1257.91  E(vib)   ...       0.01
freq.    1265.10  E(vib)   ...       0.01
freq.    1271.96  E(vib)   ...       0.01
freq.    1280.61  E(vib)   ...       0.01
freq.    1293.36  E(vib)   ...       0.01
freq.    1309.37  E(vib)   ...       0.01
freq.    1331.25  E(vib)   ...       0.01
freq.    1340.48  E(vib)   ...       0.01
freq.    1371.12  E(vib)   ...       0.01
freq.    1372.25  E(vib)   ...       0.01
freq.    1405.77  E(vib)   ...       0.00
freq.    1406.80  E(vib)   ...       0.00
freq.    1424.36  E(vib)   ...       0.00
freq.    1442.01  E(vib)   ...       0.00
freq.    1464.87  E(vib)   ...       0.00
freq.    1466.57  E(vib)   ...       0.00
freq.    1470.24  E(vib)   ...       0.00
freq.    1475.02  E(vib)   ...       0.00
freq.    1504.30  E(vib)   ...       0.00
freq.    1536.19  E(vib)   ...       0.00
freq.    1546.42  E(vib)   ...       0.00
freq.    1574.87  E(vib)   ...       0.00
freq.    1621.94  E(vib)   ...       0.00
freq.    1637.61  E(vib)   ...       0.00
freq.    1656.51  E(vib)   ...       0.00
freq.    1663.63  E(vib)   ...       0.00
freq.    1675.17  E(vib)   ...       0.00
freq.    1717.30  E(vib)   ...       0.00
freq.    2336.71  E(vib)   ...       0.00
freq.    2996.12  E(vib)   ...       0.00
freq.    3069.04  E(vib)   ...       0.00
freq.    3134.77  E(vib)   ...       0.00
freq.    3145.78  E(vib)   ...       0.00
freq.    3171.15  E(vib)   ...       0.00
freq.    3173.97  E(vib)   ...       0.00
freq.    3174.48  E(vib)   ...       0.00
freq.    3175.88  E(vib)   ...       0.00
freq.    3179.16  E(vib)   ...       0.00
freq.    3186.76  E(vib)   ...       0.00
freq.    3192.28  E(vib)   ...       0.00
freq.    3199.69  E(vib)   ...       0.00
freq.    3200.47  E(vib)   ...       0.00
freq.    3216.05  E(vib)   ...       0.00
freq.    3221.90  E(vib)   ...       0.00

------------
INNER ENERGY
------------

The inner energy is: U= E(el) + E(ZPE) + E(vib) + E(rot) + E(trans)
    E(el)   - is the total energy from the electronic structure calculation
              = E(kin-el) + E(nuc-el) + E(el-el) + E(nuc-nuc)
    E(ZPE)  - the the zero temperature vibrational energy from the frequency calculation
    E(vib)  - the the finite temperature correction to E(ZPE) due to population
              of excited vibrational states
    E(rot)  - is the rotational thermal energy
    E(trans)- is the translational thermal energy

Summary of contributions to the inner energy U:
Electronic energy                ...   -976.03472631 Eh
Zero point energy                ...      0.30493393 Eh     191.35 kcal/mol
Thermal vibrational correction   ...      0.01595427 Eh      10.01 kcal/mol
Thermal rotational correction    ...      0.00141627 Eh       0.89 kcal/mol
Thermal translational correction ...      0.00141627 Eh       0.89 kcal/mol
-----------------------------------------------------------------------
Total thermal energy                   -975.71100557 Eh

Summary of corrections to the electronic energy:
(perhaps to be used in another calculation)
Total thermal correction                  0.01878681 Eh      11.79 kcal/mol
Non-thermal (ZPE) correction              0.30493393 Eh     191.35 kcal/mol
-----------------------------------------------------------------------
Total correction                          0.32372074 Eh     203.14 kcal/mol

--------
ENTHALPY

Rotational constants in cm-1:     0.025712     0.003245     0.002894

                             ****ORCA TERMINATED NORMALLY****
TOTAL RUN TIME: 0 days 0 hours 34 minutes 33 seconds 671 msec
