 Gaussian 16, Revision C.01,
 Gaussian 16:  ES64L-G16RevC.01  3-Jul-2019

 --------------------------
 #P mp2/cc-pvdz polar=Cubic
 --------------------------

 --
 p1
 --
 Symbolic Z-matrix:
 Charge =  0 Multiplicity = 1

                         Standard orientation:
 ---------------------------------------------------------------------
 Center     Atomic      Atomic             Coordinates (Angstroms)
 Number     Number       Type             X           Y           Z
 ---------------------------------------------------------------------
      1          6           0        3.186529    0.523838    0.027045
      2          6           0        3.072340    1.932403    0.065572
      3          6           0        1.845028    2.567512    0.060567
      4          6           0        0.646930    1.822125    0.013312
      5          6           0       -0.635032    2.456289    0.020043
      6          6           0       -1.790342    1.726656   -0.028861
      7          6           0       -1.781695    0.293348   -0.098892
      8          6           0       -2.989228   -0.477834   -0.164426
      9          6           0       -2.867458   -1.886534   -0.203118
     10          6           0       -1.638227   -2.524829   -0.168042
     11          6           0       -0.437333   -1.790936   -0.115011
     12          6           0        0.843977   -2.424434   -0.102767
     13          6           0        2.003208   -1.701489   -0.059673
     14          6           0        1.991362   -0.265400   -0.021439
     15          6           0        0.712227    0.394544   -0.031784
     16          6           0       -0.505170   -0.365007   -0.083889
     17          6           0        4.496179   -0.108100    0.038012
     18          6           0       -4.300526    0.162648   -0.204065
     19          6           0        5.700123    0.498002    0.074862
     20          6           0       -5.468185   -0.448115    0.149918
     21          7           0       -6.734034    0.060314    0.038092
     22          6           0       -7.811491   -0.515310    0.819645
     23          6           0       -6.938417    1.389263   -0.496129
     24          7           0        6.918168   -0.292355    0.081096
     25          8           0        7.966578    0.343773    0.112615
     26          8           0        6.846035   -1.515511    0.055479
     27          1           0        3.978330    2.540458    0.102904
     28          1           0        1.792118    3.658870    0.094819
     29          1           0       -0.676120    3.547662    0.073481
     30          1           0       -2.743987    2.254217   -0.000398
     31          1           0       -3.769090   -2.494981   -0.300353
     32          1           0       -1.591443   -3.616956   -0.207426
     33          1           0        0.885147   -3.517115   -0.129538
     34          1           0        2.951737   -2.237452   -0.053129
     35          1           0        4.554204   -1.197495    0.014611
     36          1           0       -4.339547    1.201062   -0.533094
     37          1           0        5.916125    1.563767    0.101827
     38          1           0       -5.443816   -1.457234    0.573733
     39          1           0       -7.594477   -1.572200    1.034085
     40          1           0       -7.961841    0.003087    1.788376
     41          1           0       -8.760235   -0.468217    0.259999
     42          1           0       -8.007584    1.542376   -0.703451
     43          1           0       -6.604051    2.185653    0.199732
     44          1           0       -6.384103    1.510851   -1.440521
 ---------------------------------------------------------------------

 SCF Done:  E(RHF) =  -1102.15879443     A.U. after   18 cycles
 E2 =    -0.3598633590D+01 EUMP2 =    -0.11057574280195D+04
 E2 =    -0.3598633590D+01 EUMP2 =    -0.11057574280195D+04
 SCF Done:  E(RHF) =  -1102.16040415     A.U. after   11 cycles
 E2 =    -0.3598289509D+01 EUMP2 =    -0.11057586936558D+04
 E2 =    -0.3598289509D+01 EUMP2 =    -0.11057586936558D+04
 SCF Done:  E(RHF) =  -1102.15725411     A.U. after   11 cycles
 E2 =    -0.3598978485D+01 EUMP2 =    -0.11057562325903D+04
 E2 =    -0.3598978485D+01 EUMP2 =    -0.11057562325903D+04
 SCF Done:  E(RHF) =  -1102.15859683     A.U. after   11 cycles
 E2 =    -0.3598614225D+01 EUMP2 =    -0.11057572110570D+04
 E2 =    -0.3598614225D+01 EUMP2 =    -0.11057572110570D+04
 SCF Done:  E(RHF) =  -1102.15902233     A.U. after   11 cycles
 E2 =    -0.3598653836D+01 EUMP2 =    -0.11057576761674D+04
 E2 =    -0.3598653836D+01 EUMP2 =    -0.11057576761673D+04
 SCF Done:  E(RHF) =  -1102.15875268     A.U. after    9 cycles
 E2 =    -0.3598639140D+01 EUMP2 =    -0.11057573918175D+04
 E2 =    -0.3598639140D+01 EUMP2 =    -0.11057573918175D+04
 SCF Done:  E(RHF) =  -1102.15884746     A.U. after    9 cycles
 E2 =    -0.3598627985D+01 EUMP2 =    -0.11057574754447D+04
 E2 =    -0.3598627985D+01 EUMP2 =    -0.11057574754447D+04

 Alpha  occ. eigenvalues --  -20.57936 -20.57605 -15.83043 -15.59703 -11.30097
 Alpha  occ. eigenvalues --  -11.29030 -11.28870 -11.28762 -11.28266 -11.27683
 Alpha  occ. eigenvalues --  -11.27094 -11.26876 -11.26613 -11.26343 -11.26283
 Alpha  occ. eigenvalues --  -11.26189 -11.25930 -11.25869 -11.25701 -11.25677
 Alpha  occ. eigenvalues --  -11.25185 -11.25146 -11.25065 -11.24991 -11.24645
 Alpha  occ. eigenvalues --  -11.23023  -1.58620  -1.37824  -1.27821  -1.20905
 Alpha  occ. eigenvalues --   -1.16634  -1.13586  -1.12598  -1.09275  -1.06720
 Alpha  occ. eigenvalues --   -1.04030  -1.02671  -1.00447  -0.99082  -0.98804
 Alpha  occ. eigenvalues --   -0.94258  -0.91173  -0.87045  -0.85826  -0.85433
 Alpha  occ. eigenvalues --   -0.83056  -0.79436  -0.78288  -0.75228  -0.73850
 Alpha  occ. eigenvalues --   -0.72160  -0.71751  -0.70462  -0.70099  -0.69684
 Alpha  occ. eigenvalues --   -0.68709  -0.67482  -0.65987  -0.65313  -0.63700
 Alpha  occ. eigenvalues --   -0.62777  -0.61871  -0.60751  -0.59502  -0.58165
 Alpha  occ. eigenvalues --   -0.57167  -0.57052  -0.56899  -0.56546  -0.56372
 Alpha  occ. eigenvalues --   -0.55877  -0.54946  -0.53927  -0.53594  -0.51569
 Alpha  occ. eigenvalues --   -0.50785  -0.48643  -0.47699  -0.47442  -0.47011
 Alpha  occ. eigenvalues --   -0.46650  -0.46611  -0.43673  -0.43000  -0.40055
 Alpha  occ. eigenvalues --   -0.37166  -0.35121  -0.31583  -0.30250  -0.24374
 Alpha virt. eigenvalues --    0.01973   0.07430   0.08720   0.12167   0.13996
 Alpha virt. eigenvalues --    0.15931   0.17462   0.17679   0.18304   0.18670
 Alpha virt. eigenvalues --    0.19369   0.20233   0.20626   0.21351   0.22524

 Mulliken charges:
               1
     1  C   -0.038865
     2  C   -0.008463
     3  C    0.058835
     4  C   -0.079964
     5  C    0.064226
     6  C   -0.004540
     7  C   -0.039178
     8  C   -0.039986
     9  C    0.009539
    10  C    0.028260
    11  C   -0.055305
    12  C    0.048350
    13  C   -0.000114
    14  C   -0.039509
    15  C    0.011863
    16  C   -0.007789
    17  C    0.003924
    18  C   -0.130319
    19  C    0.106626
    20  C    0.161710
    21  N   -0.343689
    22  C    0.040361
    23  C    0.041392
    24  N    0.183537
    25  O   -0.230478
    26  O   -0.232621
    27  H    0.009309
    28  H    0.007196
    29  H    0.002807
    30  H    0.006131
    31  H    0.005940
    32  H    0.000752
    33  H    0.002846
    34  H    0.019154
    35  H    0.047946
    36  H    0.012673
    37  H    0.042041
    38  H    0.028327
    39  H    0.054699
    40  H    0.046104
    41  H    0.049928
    42  H    0.051159
    43  H    0.042149
    44  H    0.063036
 Sum of Mulliken charges =  -0.00000

 Dipole moment (field-independent basis, Debye):
    X=             -9.3837    Y=              1.7752    Z=              0.4038  Tot=              9.5587
 Quadrupole moment (field-independent basis, Debye-Ang):
   XX=           -154.2183   YY=           -138.7973   ZZ=           -158.5998
   XY=              8.0041   XZ=             -3.1279   YZ=             -1.2045

  Exact polarizability:     631.593      18.984     280.544      -1.864       1.429     100.892
 Approx polarizability:     429.568      33.626     294.470       1.870       2.373     121.850

 1\1\GINC-N1532\SP\RMP2-FC\CC-pVDZ\C22H18N2O2\KA_PR7831\12-Aug-2025\0\\
 #P mp2/cc-pvdz polar=Cubic\\p1\\0,1\C,0,-1.7811853,3.7063509,-0.122116
 \C,0,-0.5215787,4.3449124,-0.1869911\C,0,0.6621492,3.6321401,-0.166344
 2\C,0,0.654697,2.2232393,-0.0756911\C,0,1.8661732,1.4630705,-0.0654762
 \C,0,1.8497474,0.0989033,0.0254983\C,0,0.6244893,-0.6415185,0.1248434\
 C,0,0.6000981,-2.0713886,0.2345191\C,0,-0.6635921,-2.7035593,0.2993838
 \C,0,-1.8511992,-1.9917447,0.2487012\C,0,-1.8550344,-0.5866546,0.15244
 68\C,0,-3.0657019,0.1727248,0.1232675\C,0,-3.0569958,1.5369097,0.03814

 Normal termination of Gaussian 16 at Tue Aug 12 14:55:54 2025.
