                         Program Version 5.0.4 -  RELEASE  -
|  1> ! B3LYP def2-SVP Opt PAL8 FREQ
|  2> #defgrid3 slowconv VeryTightSCF
|  3> *xyz 0 1
|  4>   C   -7.127206    2.613693   -0.240885
|  5>   C   -5.924788    3.222585   -0.240974
|  6>   C   -4.779153    2.540746   -0.144225
|  7>   C   -4.802478    1.205785   -0.042499
|  8>   C   -3.645708    0.537251    0.053965
|  9>   C   -3.643693   -0.796229    0.157054
| 10>   C   -4.782921   -1.516793    0.168609
| 11>   C   -4.785213   -2.874332    0.274234
| 12>   C   -5.983794   -3.489589    0.274660
| 13>   C   -7.130026   -2.808806    0.176512
| 14>   C   -7.107667   -1.473451    0.074061
| 15>   C   -8.263948   -0.804675   -0.022900
| 16>   C   -8.265896    0.528981   -0.125527
| 17>   C   -7.129086    1.254541   -0.136889
| 18>   C   -5.974291    0.544530   -0.037291
| 19>   C   -5.938046   -0.808347    0.068515
| 20>   C   -8.248133    3.371283   -0.342103
| 21>   C   -3.667120   -3.631864    0.377923
| 22>   C   -8.372397    4.711028   -0.448169
| 23>   C   -3.553292   -4.967612    0.487418
| 24>   O   -2.331142   -5.555305    0.582566
| 25>   N   -9.469701    5.315721   -0.536767
| 26>   O   -9.498337    6.626424   -0.635750
| 27>   O  -10.643042    4.725828   -0.538907
| 28>   H   -5.795495    4.311841   -0.319602
| 29>   H   -3.825392    3.097069   -0.149853
| 30>   H   -2.678988    1.071127    0.050360
| 31>   H   -2.637842   -1.232816    0.229884
| 32>   H   -6.101583   -4.580564    0.354864
| 33>   H   -8.082858   -3.366496    0.182232
| 34>   H   -9.230296   -1.339367   -0.019478
| 35>   H   -9.274762    0.958385   -0.197869
| 36>   H   -9.222930    2.866633   -0.341771
| 37>   H   -2.672936   -3.162052    0.380617
| 38>   H   -7.477448    5.351314   -0.461611
| 39>   H   -4.393386   -5.674552    0.510022
| 40>   H   -2.433857   -6.517997    0.657320
| 41> **                         ****END OF INPUT****
 Total Charge           Charge          ....    0
 Multiplicity           Mult            ....    1
 Number of Electrons    NEL             ....  164
FINAL SINGLE POINT ENERGY     -1048.765120518825
FINAL SINGLE POINT ENERGY     -1048.862642776101
FINAL SINGLE POINT ENERGY     -1048.911402554028
FINAL SINGLE POINT ENERGY     -1048.923636967952
FINAL SINGLE POINT ENERGY     -1048.925096934178
FINAL SINGLE POINT ENERGY     -1048.925565206692
FINAL SINGLE POINT ENERGY     -1048.925665474833
FINAL SINGLE POINT ENERGY     -1048.925681586331
FINAL SINGLE POINT ENERGY     -1048.925685642589
                    ***********************HURRAY********************

CARTESIAN COORDINATES (ANGSTROEM)
---------------------------------
  C     -7.110798    2.747902   -0.244903
  C     -5.850411    3.386136   -0.244055
  C     -4.669692    2.673761   -0.143089
  C     -4.683063    1.267357   -0.036217
  C     -3.474414    0.508988    0.068561
  C     -3.493750   -0.853058    0.170878
  C     -4.722745   -1.597925    0.179102
  C     -4.758827   -3.025741    0.284992
  C     -6.023057   -3.656700    0.284121
  C     -7.205804   -2.943329    0.185899
  C     -7.200858   -1.539300    0.079980
  C     -8.408890   -0.780962   -0.023845
  C     -8.394335    0.581110   -0.127443
  C     -7.162163    1.320392   -0.136487
  C     -5.934562    0.577342   -0.032134
  C     -5.949036   -0.854306    0.075923
  C     -8.332320    3.532005   -0.355410
  C     -3.526515   -3.806962    0.390256
  C     -8.437774    4.870165   -0.473117
  C     -3.427698   -5.147000    0.500748
  O     -2.220430   -5.753147    0.588962
  N     -9.745311    5.496255   -0.573842
  O     -9.743636    6.717777   -0.679641
  O    -10.752415    4.799062   -0.549419
  H     -5.801857    4.473752   -0.324826
  H     -3.710825    3.198599   -0.145665
  H     -2.521395    1.044833    0.065122
  H     -2.543560   -1.380315    0.248395
  H     -6.082214   -4.744086    0.362422
  H     -8.162647   -3.472835    0.189535
  H     -9.362196   -1.316904   -0.019269
  H     -9.344753    1.108029   -0.204601
  H     -9.292759    3.014298   -0.346810
  H     -2.571249   -3.280360    0.381038
  H     -7.638684    5.607435   -0.508201
  H     -4.299567   -5.810435    0.525132
  H     -2.334644   -6.707914    0.665653

 Multiplicity           Mult            ....    1
 Number of Electrons    NEL             ....  164
 Basis Dimension        Dim             ....  401

ORBITAL ENERGIES
----------------

  NO   OCC          E(Eh)            E(eV)
   0   2.0000     -19.185385      -522.0609
   1   2.0000     -19.141822      -520.8755
   2   2.0000     -19.141504      -520.8668
   3   2.0000     -14.540258      -395.6605
   4   2.0000     -10.263940      -279.2960
   5   2.0000     -10.232807      -278.4488
   6   2.0000     -10.221916      -278.1525
   7   2.0000     -10.217466      -278.0314
   8   2.0000     -10.217356      -278.0284
   9   2.0000     -10.215172      -277.9690
  10   2.0000     -10.211559      -277.8707
  11   2.0000     -10.210829      -277.8508
  12   2.0000     -10.210022      -277.8288
  13   2.0000     -10.208916      -277.7987
  14   2.0000     -10.206176      -277.7242
  15   2.0000     -10.204347      -277.6744
  16   2.0000     -10.204146      -277.6689
  17   2.0000     -10.203298      -277.6458
  18   2.0000     -10.203239      -277.6443
  19   2.0000     -10.202068      -277.6124
  20   2.0000     -10.201474      -277.5962
  21   2.0000     -10.201087      -277.5857
  22   2.0000     -10.200371      -277.5662
  23   2.0000     -10.192648      -277.3561
  24   2.0000      -1.200672       -32.6720
  25   2.0000      -1.069218       -29.0949
  26   2.0000      -1.026260       -27.9260
  27   2.0000      -0.896941       -24.4070
  28   2.0000      -0.863176       -23.4882
  29   2.0000      -0.837573       -22.7915
  30   2.0000      -0.830120       -22.5887
  31   2.0000      -0.805347       -21.9146
  32   2.0000      -0.785326       -21.3698
  33   2.0000      -0.763368       -20.7723
  34   2.0000      -0.750642       -20.4260
  35   2.0000      -0.733902       -19.9705
  36   2.0000      -0.721124       -19.6228
  37   2.0000      -0.682847       -18.5812
  38   2.0000      -0.644688       -17.5429
  39   2.0000      -0.638942       -17.3865
  40   2.0000      -0.626633       -17.0515
  41   2.0000      -0.615003       -16.7351
  42   2.0000      -0.587005       -15.9732
  43   2.0000      -0.575091       -15.6490
  44   2.0000      -0.563685       -15.3387
  45   2.0000      -0.542244       -14.7552
  46   2.0000      -0.536725       -14.6050
  47   2.0000      -0.529561       -14.4101
  48   2.0000      -0.520994       -14.1770
  49   2.0000      -0.517402       -14.0792
  50   2.0000      -0.512786       -13.9536
  51   2.0000      -0.503498       -13.7009
  52   2.0000      -0.483482       -13.1562
  53   2.0000      -0.477751       -13.0003
  54   2.0000      -0.463481       -12.6120
  55   2.0000      -0.454358       -12.3637
  56   2.0000      -0.450279       -12.2527
  57   2.0000      -0.434119       -11.8130
  58   2.0000      -0.431552       -11.7431
  59   2.0000      -0.427187       -11.6243
  60   2.0000      -0.417946       -11.3729
  61   2.0000      -0.414927       -11.2907
  62   2.0000      -0.408511       -11.1161
  63   2.0000      -0.404815       -11.0156
  64   2.0000      -0.401558       -10.9269
  65   2.0000      -0.388322       -10.5668
  66   2.0000      -0.385076       -10.4785
  67   2.0000      -0.379561       -10.3284
  68   2.0000      -0.361030        -9.8241
  69   2.0000      -0.358358        -9.7514
  70   2.0000      -0.344594        -9.3769
  71   2.0000      -0.338853        -9.2207
  72   2.0000      -0.331723        -9.0266
  73   2.0000      -0.303223        -8.2511
  74   2.0000      -0.293389        -7.9835
  75   2.0000      -0.293341        -7.9822
  76   2.0000      -0.291096        -7.9211
  77   2.0000      -0.275192        -7.4883
  78   2.0000      -0.269070        -7.3218
  79   2.0000      -0.250036        -6.8038
  80   2.0000      -0.240611        -6.5474
  81   2.0000      -0.198688        -5.4066
  82   0.0000      -0.099719        -2.7135
  83   0.0000      -0.061853        -1.6831
  84   0.0000      -0.045296        -1.2326
  85   0.0000      -0.024645        -0.6706
  86   0.0000      -0.012105        -0.3294

MULLIKEN ATOMIC CHARGES
-----------------------
   0 C :    0.074775
   1 C :   -0.022783
   2 C :   -0.030281
   3 C :    0.073478
   4 C :   -0.012563
   5 C :   -0.027300
   6 C :    0.056064
   7 C :    0.103759
   8 C :   -0.044783
   9 C :   -0.024114
  10 C :    0.061299
  11 C :   -0.004013
  12 C :   -0.042213
  13 C :    0.080249
  14 C :    0.054154
  15 C :    0.067387
  16 C :    0.040551
  17 C :   -0.021693
  18 C :    0.059772
  19 C :    0.075911
  20 O :   -0.181917
  21 N :    0.232611
  22 O :   -0.262694
  23 O :   -0.259499
  24 H :   -0.022439
  25 H :   -0.028345
  26 H :   -0.029716
  27 H :   -0.029179
  28 H :   -0.039299
  29 H :   -0.030261
  30 H :   -0.027434
  31 H :   -0.026022
  32 H :    0.014521
  33 H :   -0.015554
  34 H :    0.003670
  35 H :   -0.002434
  36 H :    0.186336
Sum of atomic charges:   -0.0000000

LOEWDIN ATOMIC CHARGES
----------------------
   0 C :   -0.038163
   1 C :   -0.002233
   2 C :   -0.021167
   3 C :   -0.003711
   4 C :   -0.019231
   5 C :   -0.004795
   6 C :   -0.017875
   7 C :   -0.001121
   8 C :   -0.026020
   9 C :   -0.008552
  10 C :   -0.025640
  11 C :   -0.003552
  12 C :   -0.024759
  13 C :    0.005784
  14 C :    0.001324
  15 C :    0.004860
  16 C :    0.025224
  17 C :   -0.089331
  18 C :   -0.028398
  19 C :    0.065165
  20 O :   -0.042629
  21 N :    0.272382
  22 O :   -0.221916
  23 O :   -0.230551
  24 H :    0.029564
  25 H :    0.029507
  26 H :    0.029307
  27 H :    0.028941
  28 H :    0.022073
  29 H :    0.028756
  30 H :    0.030522
  31 H :    0.030536
  32 H :    0.037876
  33 H :    0.031338
  34 H :    0.027919
  35 H :    0.011138
  36 H :    0.097427

  Mayer bond orders larger than 0.100000
B(  0-C ,  1-C ) :   1.2977 B(  0-C , 13-C ) :   1.2457 B(  0-C , 16-C ) :   1.1126
B(  1-C ,  2-C ) :   1.4063 B(  1-C , 24-H ) :   0.9787 B(  2-C ,  3-C ) :   1.2610
B(  2-C , 25-H ) :   0.9885 B(  3-C ,  4-C ) :   1.1664 B(  3-C , 14-C ) :   1.2413
B(  4-C ,  5-C ) :   1.5332 B(  4-C , 26-H ) :   0.9846 B(  5-C ,  6-C ) :   1.1706
B(  5-C , 27-H ) :   0.9790 B(  6-C ,  7-C ) :   1.2603 B(  6-C , 15-C ) :   1.2336
B(  7-C ,  8-C ) :   1.3037 B(  7-C , 17-C ) :   1.1196 B(  8-C ,  9-C ) :   1.4050
B(  8-C , 28-H ) :   0.9760 B(  9-C , 10-C ) :   1.2684 B(  9-C , 29-H ) :   0.9864
B( 10-C , 11-C ) :   1.1625 B( 10-C , 15-C ) :   1.2454 B( 11-C , 12-C ) :   1.5331
B( 11-C , 30-H ) :   0.9839 B( 12-C , 13-C ) :   1.1754 B( 12-C , 31-H ) :   0.9797
B( 13-C , 14-C ) :   1.2353 B( 14-C , 15-C ) :   1.2283 B( 16-C , 18-C ) :   1.6359
B( 16-C , 32-H ) :   0.9448 B( 17-C , 19-C ) :   1.7118 B( 17-C , 33-H ) :   0.9546
B( 18-C , 21-N ) :   0.9437 B( 18-C , 34-H ) :   0.9834 B( 19-C , 20-O ) :   1.2131
B( 19-C , 35-H ) :   0.9536 B( 20-O , 36-H ) :   0.9635 B( 21-N , 22-O ) :   1.4911
B( 21-N , 23-O ) :   1.5160 B( 22-O , 23-O ) :   0.2714

FINAL SINGLE POINT ENERGY     -1048.925686792790

DIPOLE MOMENT
-------------
                                X             Y             Z
Electronic contribution:     -6.20335       9.33936      -0.96752
Nuclear contribution   :      8.19834     -12.60869       1.30718
                        -----------------------------------------
Total Dipole Moment    :      1.99499      -3.26934       0.33966
                        -----------------------------------------
Magnitude (a.u.)       :      3.84498
Magnitude (Debye)      :      9.77317

VIBRATIONAL FREQUENCIES
-----------------------

Scaling factor for frequencies =  1.000000000  (already applied!)

   0:         0.00 cm**-1
   1:         0.00 cm**-1
   2:         0.00 cm**-1
   3:         0.00 cm**-1
   4:         0.00 cm**-1
   5:         0.00 cm**-1
   6:       -72.54 cm**-1 ***imaginary mode***
   7:        20.42 cm**-1
   8:        28.26 cm**-1
   9:        65.87 cm**-1
  10:        67.23 cm**-1
  11:       100.90 cm**-1
  12:       120.34 cm**-1
  13:       122.17 cm**-1
  14:       162.11 cm**-1
  15:       206.03 cm**-1
  16:       216.09 cm**-1
  17:       221.46 cm**-1
  18:       252.71 cm**-1
  19:       262.59 cm**-1
  20:       300.57 cm**-1
  21:       309.07 cm**-1
  22:       341.06 cm**-1
  23:       353.77 cm**-1
  24:       392.30 cm**-1
  25:       422.83 cm**-1
  26:       451.66 cm**-1
  27:       453.96 cm**-1
  28:       503.73 cm**-1
  29:       523.18 cm**-1
  30:       525.78 cm**-1
  31:       532.11 cm**-1
  32:       561.01 cm**-1
  33:       570.13 cm**-1
  34:       579.58 cm**-1
  35:       605.00 cm**-1
  36:       634.24 cm**-1
  37:       667.57 cm**-1
  38:       701.89 cm**-1
  39:       719.13 cm**-1
  40:       737.08 cm**-1
  41:       741.34 cm**-1
  42:       761.88 cm**-1
  43:       774.98 cm**-1
  44:       802.23 cm**-1
  45:       818.31 cm**-1
  46:       819.99 cm**-1
  47:       840.01 cm**-1
  48:       854.33 cm**-1
  49:       864.04 cm**-1
  50:       876.51 cm**-1
  51:       884.37 cm**-1
  52:       894.65 cm**-1
  53:       945.33 cm**-1
  54:       948.03 cm**-1
  55:       986.84 cm**-1
  56:       991.89 cm**-1
  57:       995.54 cm**-1
  58:      1000.00 cm**-1
  59:      1010.14 cm**-1
  60:      1012.30 cm**-1
  61:      1015.93 cm**-1
  62:      1020.01 cm**-1
  63:      1115.69 cm**-1
  64:      1131.88 cm**-1
  65:      1168.46 cm**-1
  66:      1183.96 cm**-1
  67:      1195.72 cm**-1
  68:      1204.34 cm**-1
  69:      1208.11 cm**-1
  70:      1231.40 cm**-1
  71:      1237.66 cm**-1
  72:      1264.29 cm**-1
  73:      1268.69 cm**-1
  74:      1278.84 cm**-1
  75:      1285.12 cm**-1
  76:      1320.57 cm**-1
  77:      1333.61 cm**-1
  78:      1351.36 cm**-1
  79:      1371.21 cm**-1
  80:      1382.03 cm**-1
  81:      1399.84 cm**-1
  82:      1407.20 cm**-1
  83:      1414.47 cm**-1
  84:      1426.82 cm**-1
  85:      1444.08 cm**-1
  86:      1469.53 cm**-1
  87:      1506.32 cm**-1
  88:      1537.16 cm**-1
  89:      1548.39 cm**-1
  90:      1574.60 cm**-1
  91:      1621.79 cm**-1
  92:      1629.47 cm**-1
  93:      1645.69 cm**-1
  94:      1660.11 cm**-1
  95:      1669.26 cm**-1
  96:      1694.97 cm**-1
  97:      1733.48 cm**-1
  98:      3154.84 cm**-1
  99:      3172.26 cm**-1
 100:      3175.60 cm**-1
 101:      3175.84 cm**-1
 102:      3179.06 cm**-1
 103:      3194.23 cm**-1
 104:      3199.02 cm**-1
 105:      3200.77 cm**-1
 106:      3206.41 cm**-1
 107:      3224.10 cm**-1
 108:      3224.54 cm**-1
 109:      3253.82 cm**-1
 110:      3849.06 cm**-1

IR SPECTRUM
-----------

 Mode   freq       eps      Int      T**2         TX        TY        TZ
       cm**-1   L/(mol*cm) km/mol    a.u.
----------------------------------------------------------------------------
  7:     20.42   0.000001    0.01  0.000022  ( 0.000724 -0.000990 -0.004472)
  8:     28.26   0.000171    0.87  0.001892  ( 0.001110 -0.003243 -0.043365)
  9:     65.87   0.000024    0.12  0.000112  ( 0.001071  0.001469 -0.010413)
 10:     67.23   0.000236    1.19  0.001097  (-0.007477 -0.032229  0.001570)
 11:    100.90   0.000384    1.94  0.001188  ( 0.001228 -0.003027 -0.034312)
 12:    120.34   0.000489    2.47  0.001269  ( 0.000817  0.003173  0.035475)
 13:    122.17   0.000298    1.51  0.000761  ( 0.025032  0.011367 -0.002242)
 14:    162.11   0.000037    0.19  0.000071  (-0.000449  0.001359  0.008294)
 15:    206.03   0.000113    0.57  0.000171  ( 0.000207  0.001374  0.013004)
 16:    216.09   0.000004    0.02  0.000006  ( 0.002246 -0.000855  0.000471)
 17:    221.46   0.001361    6.88  0.001917  ( 0.001809 -0.003484 -0.043611)
 18:    252.71   0.000129    0.65  0.000159  ( 0.011757  0.004584 -0.000165)
 19:    262.59   0.000018    0.09  0.000021  ( 0.000331 -0.000675 -0.004541)
 20:    300.57   0.003228   16.31  0.003352  ( 0.002158 -0.005576 -0.057584)
 21:    309.07   0.000656    3.31  0.000662  (-0.016895  0.019364 -0.001357)
 22:    341.06   0.015426   77.96  0.014114  (-0.003956  0.010531  0.118270)
 23:    353.77   0.000668    3.38  0.000589  ( 0.015112 -0.018961  0.001150)
 24:    392.30   0.002239   11.31  0.001781  ( 0.001675 -0.003946 -0.041984)
 25:    422.83   0.001679    8.49  0.001239  ( 0.019718 -0.029007  0.003030)
 26:    451.66   0.000059    0.30  0.000041  ( 0.001906 -0.002144 -0.005697)
 27:    453.96   0.001818    9.19  0.001250  (-0.026005  0.023735 -0.003235)
 28:    503.73   0.000678    3.43  0.000420  (-0.008507  0.018572 -0.001695)
 29:    523.18   0.000143    0.72  0.000085  (-0.005294 -0.007566  0.000401)
 30:    525.78   0.000008    0.04  0.000005  ( 0.000163 -0.000002  0.002164)
 31:    532.11   0.001646    8.32  0.000965  ( 0.008685 -0.029715  0.002622)
 32:    561.01   0.000466    2.36  0.000259  (-0.000688  0.001286  0.016034)
 33:    570.13   0.000396    2.00  0.000217  ( 0.000827 -0.001537 -0.014613)
 34:    579.58   0.001066    5.39  0.000574  ( 0.007949 -0.022471  0.002412)
 35:    605.00   0.003120   15.77  0.001609  (-0.021078  0.033973 -0.003276)
 36:    634.24   0.001643    8.30  0.000808  (-0.014017  0.024616 -0.002450)
 37:    667.57   0.000067    0.34  0.000031  ( 0.000231 -0.000542 -0.005570)
 38:    701.89   0.000090    0.46  0.000040  (-0.005810  0.002480 -0.000358)
 39:    719.13   0.001107    5.60  0.000481  (-0.000606  0.001383  0.021869)
 40:    737.08   0.000424    2.14  0.000180  (-0.011169 -0.007403  0.000070)
 41:    741.34   0.000086    0.44  0.000036  ( 0.000347 -0.000580 -0.005981)
 42:    761.88   0.002848   14.39  0.001166  (-0.001397  0.002795  0.034009)
 43:    774.98   0.001799    9.09  0.000725  ( 0.020701 -0.017066  0.002180)
 44:    802.23   0.009949   50.28  0.003870  (-0.046887  0.040591 -0.004908)
 45:    818.31   0.000014    0.07  0.000005  ( 0.000412 -0.000770 -0.002108)
 46:    819.99   0.005302   26.79  0.002018  ( 0.009716 -0.043700  0.003674)
 47:    840.01   0.004150   20.97  0.001542  ( 0.001508 -0.003125 -0.039113)
 48:    854.33   0.000809    4.09  0.000295  (-0.000724  0.001805  0.017079)
 49:    864.04   0.001686    8.52  0.000609  ( 0.010458 -0.022248  0.002152)
 50:    876.51   0.004902   24.77  0.001745  ( 0.001440 -0.002689 -0.041665)
 51:    884.37   0.004921   24.87  0.001737  (-0.001611  0.003479  0.041495)
 52:    894.65   0.001641    8.29  0.000572  (-0.001151  0.002157  0.023796)
 53:    945.33   0.000132    0.67  0.000044  (-0.000115  0.000378  0.006594)
 54:    948.03   0.006718   33.95  0.002211  (-0.001299  0.003131  0.046903)
 55:    986.84   0.014264   72.08  0.004511  (-0.033869  0.057720 -0.005639)
 56:    991.89   0.000167    0.84  0.000052  (-0.000531  0.001004  0.007155)
 57:    995.54   0.000764    3.86  0.000239  (-0.000538  0.001170  0.015418)
 58:   1000.00   0.001330    6.72  0.000415  ( 0.012503 -0.015976  0.001839)
 59:   1010.14   0.025433  128.53  0.007857  ( 0.048807 -0.073624  0.007382)
 60:   1012.30   0.001580    7.98  0.000487  (-0.000278  0.000928  0.022045)
 61:   1015.93   0.000661    3.34  0.000203  (-0.000441  0.001100  0.014197)
 62:   1020.01   0.000196    0.99  0.000060  (-0.000087  0.000304  0.007735)
 63:   1115.69   0.002049   10.35  0.000573  ( 0.007115 -0.022771  0.001978)
 64:   1131.88   0.000174    0.88  0.000048  (-0.006738  0.001532 -0.000331)
 65:   1168.46   0.002646   13.37  0.000707  (-0.003307  0.026282 -0.002237)
 66:   1183.96   0.000274    1.38  0.000072  (-0.001187  0.008374 -0.000752)
 67:   1195.72   0.000024    0.12  0.000006  ( 0.002210  0.001190  0.000014)
 68:   1204.34   0.002389   12.07  0.000619  ( 0.024425 -0.004597  0.001174)
 69:   1208.11   0.022475  113.58  0.005806  ( 0.064538 -0.040120  0.005542)
 70:   1231.40   0.048487  245.03  0.012288  ( 0.060584 -0.092360  0.009313)
 71:   1237.66   0.094846  479.31  0.023914  ( 0.095998 -0.120554  0.012868)
 72:   1264.29   0.032654  165.02  0.008060  (-0.044642  0.077499 -0.007803)
 73:   1268.69   0.000421    2.13  0.000104  ( 0.006374  0.007917 -0.000516)
 74:   1278.84   0.025301  127.86  0.006174  ( 0.041215 -0.066545  0.006863)
 75:   1285.12   0.023805  120.30  0.005781  ( 0.047328 -0.059149  0.006487)
 76:   1320.57   0.001390    7.02  0.000328  (-0.010819  0.014441 -0.001688)
 77:   1333.61   0.007466   37.73  0.001747  (-0.023105  0.034667 -0.003388)
 78:   1351.36   0.000988    4.99  0.000228  (-0.010386 -0.010955  0.000539)
 79:   1371.21   0.000282    1.43  0.000064  ( 0.002397  0.007623 -0.000576)
 80:   1382.03   0.015153   76.58  0.003422  ( 0.047822 -0.033401  0.004373)
 81:   1399.84   0.218810  1105.77  0.048779  ( 0.145045 -0.165500  0.018729)
 82:   1407.20   0.000091    0.46  0.000020  (-0.004428 -0.000775 -0.000215)
 83:   1414.47   0.007640   38.61  0.001686  ( 0.029320 -0.028523  0.003531)
 84:   1426.82   0.002322   11.74  0.000508  (-0.001336  0.022423 -0.001821)
 85:   1444.08   0.000041    0.21  0.000009  (-0.002161 -0.002043  0.000062)
 86:   1469.53   0.003180   16.07  0.000675  ( 0.021370 -0.014661  0.001906)
 87:   1506.32   0.000611    3.09  0.000127  (-0.004200 -0.010419  0.000640)
 88:   1537.16   0.000655    3.31  0.000133  (-0.011461 -0.001224 -0.000314)
 89:   1548.39   0.004517   22.83  0.000910  (-0.008102  0.028953 -0.002549)
 90:   1574.60   0.004292   21.69  0.000851  (-0.020602  0.020506 -0.002393)
 91:   1621.79   0.001785    9.02  0.000344  (-0.003104  0.018207 -0.001547)
 92:   1629.47   0.051515  260.34  0.009866  ( 0.089199 -0.043238  0.006315)
 93:   1645.69   0.028156  142.29  0.005339  (-0.011554  0.071870 -0.006342)
 94:   1660.11   0.003997   20.20  0.000751  (-0.020187 -0.018523  0.000798)
 95:   1669.26   0.036507  184.49  0.006825  (-0.016439  0.080650 -0.007081)
 96:   1694.97   0.043352  219.08  0.007982  ( 0.013163 -0.088009  0.007924)
 97:   1733.48   0.083055  419.73  0.014952  (-0.060998  0.105464 -0.010406)
 98:   3154.84   0.002084   10.53  0.000206  (-0.014224 -0.001936 -0.000312)
 99:   3172.26   0.000186    0.94  0.000018  (-0.002602  0.003380 -0.000357)
100:   3175.60   0.002325   11.75  0.000228  (-0.015100  0.000338 -0.000608)
101:   3175.84   0.000182    0.92  0.000018  ( 0.004173  0.000707  0.000123)
102:   3179.06   0.002139   10.81  0.000210  ( 0.014446 -0.000946  0.000658)
103:   3194.23   0.004772   24.12  0.000466  (-0.006339 -0.020599  0.001306)
104:   3199.02   0.001973    9.97  0.000193  ( 0.005591  0.012678 -0.000721)
105:   3200.77   0.001452    7.34  0.000142  ( 0.004835 -0.010823  0.001010)
106:   3206.41   0.000903    4.56  0.000088  (-0.008880 -0.002997 -0.000064)
107:   3224.10   0.002939   14.85  0.000284  (-0.016029  0.005154 -0.000988)
108:   3224.54   0.000263    1.33  0.000025  ( 0.004433 -0.002378  0.000359)
109:   3253.82   0.003110   15.72  0.000298  ( 0.008750 -0.014806  0.001576)
110:   3849.06   0.066082  333.95  0.005358  ( 0.022931 -0.069211  0.006448)

--------------------------
THERMOCHEMISTRY AT 298.15K
--------------------------

Temperature         ... 298.15 K
Pressure            ... 1.00 atm
Total Mass          ... 315.33 AMU

Throughout the following assumptions are being made:
  (1) The electronic state is orbitally nondegenerate
  (2) There are no thermally accessible electronically excited states
  (3) Hindered rotations indicated by low frequency modes are not
      treated as such but are treated as vibrations and this may
      cause some error
  (4) All equations used are the standard statistical mechanics
      equations for an ideal gas
  (5) All vibrations are strictly harmonic

freq.      20.42  E(vib)   ...       0.56
freq.      28.26  E(vib)   ...       0.55
freq.      65.87  E(vib)   ...       0.50
freq.      67.23  E(vib)   ...       0.50
freq.     100.90  E(vib)   ...       0.46
freq.     120.34  E(vib)   ...       0.44
freq.     122.17  E(vib)   ...       0.43
freq.     162.11  E(vib)   ...       0.39
freq.     206.03  E(vib)   ...       0.35
freq.     216.09  E(vib)   ...       0.34
freq.     221.46  E(vib)   ...       0.33
freq.     252.71  E(vib)   ...       0.30
freq.     262.59  E(vib)   ...       0.29
freq.     300.57  E(vib)   ...       0.26
freq.     309.07  E(vib)   ...       0.26
freq.     341.06  E(vib)   ...       0.23
freq.     353.77  E(vib)   ...       0.22
freq.     392.30  E(vib)   ...       0.20
freq.     422.83  E(vib)   ...       0.18
freq.     451.66  E(vib)   ...       0.16
freq.     453.96  E(vib)   ...       0.16
freq.     503.73  E(vib)   ...       0.14
freq.     523.18  E(vib)   ...       0.13
freq.     525.78  E(vib)   ...       0.13
freq.     532.11  E(vib)   ...       0.13
freq.     561.01  E(vib)   ...       0.11
freq.     570.13  E(vib)   ...       0.11
freq.     579.58  E(vib)   ...       0.11
freq.     605.00  E(vib)   ...       0.10
freq.     634.24  E(vib)   ...       0.09
freq.     667.57  E(vib)   ...       0.08
freq.     701.89  E(vib)   ...       0.07
freq.     719.13  E(vib)   ...       0.07
freq.     737.08  E(vib)   ...       0.06
freq.     741.34  E(vib)   ...       0.06
freq.     761.88  E(vib)   ...       0.06
freq.     774.98  E(vib)   ...       0.05
freq.     802.23  E(vib)   ...       0.05
freq.     818.31  E(vib)   ...       0.05
freq.     819.99  E(vib)   ...       0.05
freq.     840.01  E(vib)   ...       0.04
freq.     854.33  E(vib)   ...       0.04
freq.     864.04  E(vib)   ...       0.04
freq.     876.51  E(vib)   ...       0.04
freq.     884.37  E(vib)   ...       0.04
freq.     894.65  E(vib)   ...       0.03
freq.     945.33  E(vib)   ...       0.03
freq.     948.03  E(vib)   ...       0.03
freq.     986.84  E(vib)   ...       0.02
freq.     991.89  E(vib)   ...       0.02
freq.     995.54  E(vib)   ...       0.02
freq.    1000.00  E(vib)   ...       0.02
freq.    1010.14  E(vib)   ...       0.02
freq.    1012.30  E(vib)   ...       0.02
freq.    1015.93  E(vib)   ...       0.02
freq.    1020.01  E(vib)   ...       0.02
freq.    1115.69  E(vib)   ...       0.01
freq.    1131.88  E(vib)   ...       0.01
freq.    1168.46  E(vib)   ...       0.01
freq.    1183.96  E(vib)   ...       0.01
freq.    1195.72  E(vib)   ...       0.01
freq.    1204.34  E(vib)   ...       0.01
freq.    1208.11  E(vib)   ...       0.01
freq.    1231.40  E(vib)   ...       0.01
freq.    1237.66  E(vib)   ...       0.01
freq.    1264.29  E(vib)   ...       0.01
freq.    1268.69  E(vib)   ...       0.01
freq.    1278.84  E(vib)   ...       0.01
freq.    1285.12  E(vib)   ...       0.01
freq.    1320.57  E(vib)   ...       0.01
freq.    1333.61  E(vib)   ...       0.01
freq.    1351.36  E(vib)   ...       0.01
freq.    1371.21  E(vib)   ...       0.01
freq.    1382.03  E(vib)   ...       0.01
freq.    1399.84  E(vib)   ...       0.00
freq.    1407.20  E(vib)   ...       0.00
freq.    1414.47  E(vib)   ...       0.00
freq.    1426.82  E(vib)   ...       0.00
freq.    1444.08  E(vib)   ...       0.00
freq.    1469.53  E(vib)   ...       0.00
freq.    1506.32  E(vib)   ...       0.00
freq.    1537.16  E(vib)   ...       0.00
freq.    1548.39  E(vib)   ...       0.00
freq.    1574.60  E(vib)   ...       0.00
freq.    1621.79  E(vib)   ...       0.00
freq.    1629.47  E(vib)   ...       0.00
freq.    1645.69  E(vib)   ...       0.00
freq.    1660.11  E(vib)   ...       0.00
freq.    1669.26  E(vib)   ...       0.00
freq.    1694.97  E(vib)   ...       0.00
freq.    1733.48  E(vib)   ...       0.00
freq.    3154.84  E(vib)   ...       0.00
freq.    3172.26  E(vib)   ...       0.00
freq.    3175.60  E(vib)   ...       0.00
freq.    3175.84  E(vib)   ...       0.00
freq.    3179.06  E(vib)   ...       0.00
freq.    3194.23  E(vib)   ...       0.00
freq.    3199.02  E(vib)   ...       0.00
freq.    3200.77  E(vib)   ...       0.00
freq.    3206.41  E(vib)   ...       0.00
freq.    3224.10  E(vib)   ...       0.00
freq.    3224.54  E(vib)   ...       0.00
freq.    3253.82  E(vib)   ...       0.00
freq.    3849.06  E(vib)   ...       0.00

------------
INNER ENERGY
------------

The inner energy is: U= E(el) + E(ZPE) + E(vib) + E(rot) + E(trans)
    E(el)   - is the total energy from the electronic structure calculation
              = E(kin-el) + E(nuc-el) + E(el-el) + E(nuc-nuc)
    E(ZPE)  - the the zero temperature vibrational energy from the frequency calculation
    E(vib)  - the the finite temperature correction to E(ZPE) due to population
              of excited vibrational states
    E(rot)  - is the rotational thermal energy
    E(trans)- is the translational thermal energy

Summary of contributions to the inner energy U:
Electronic energy                ...  -1048.92568679 Eh
Zero point energy                ...      0.28184616 Eh     176.86 kcal/mol
Thermal vibrational correction   ...      0.01506023 Eh       9.45 kcal/mol
Thermal rotational correction    ...      0.00141627 Eh       0.89 kcal/mol
Thermal translational correction ...      0.00141627 Eh       0.89 kcal/mol
-----------------------------------------------------------------------
Total thermal energy                  -1048.62594786 Eh

Summary of corrections to the electronic energy:
(perhaps to be used in another calculation)
Total thermal correction                  0.01789278 Eh      11.23 kcal/mol
Non-thermal (ZPE) correction              0.28184616 Eh     176.86 kcal/mol
-----------------------------------------------------------------------
Total correction                          0.29973893 Eh     188.09 kcal/mol

--------
ENTHALPY
--------

The enthalpy is H = U + kB*T
                kB is Boltzmann's constant
Total free energy                 ...  -1048.62594786 Eh
Thermal Enthalpy correction       ...      0.00094421 Eh       0.59 kcal/mol

Rotational constants in cm-1:     0.024978     0.003301     0.002916

                             ****ORCA TERMINATED NORMALLY****
TOTAL RUN TIME: 0 days 0 hours 30 minutes 4 seconds 945 msec
