                         Program Version 5.0.4 -  RELEASE  -
|  1> ! B3LYP def2-SVP Opt PAL8 FREQ defgrid3 slowconv VeryTightSCF
|  2> *xyz 0 1
|  3>   C      -7.110798      2.747902     -0.244903
|  4>   C      -5.850411      3.386136     -0.244055
|  5>   C      -4.669692      2.673761     -0.143089
|  6>   C      -4.683063      1.267357     -0.036217
|  7>   C      -3.474414      0.508988      0.068561
|  8>   C      -3.493750     -0.853058      0.170878
|  9>   C      -4.722745     -1.597925      0.179102
| 10>   C      -4.758827     -3.025741      0.284992
| 11>   C      -6.023057     -3.656700      0.284121
| 12>   C      -7.205804     -2.943329      0.185899
| 13>   C      -7.200858     -1.539300      0.079980
| 14>   C      -8.408890     -0.780962     -0.023845
| 15>   C      -8.394335      0.581110     -0.127443
| 16>   C      -7.162163      1.320392     -0.136487
| 17>   C      -5.934562      0.577342     -0.032134
| 18>   C      -5.949036     -0.854306      0.075923
| 19>   C      -8.332320      3.532005     -0.355410
| 20>   C      -3.526515     -3.806962      0.390256
| 21>   C      -8.437774      4.870165     -0.473117
| 22>   C      -3.427698     -5.147000      0.500748
| 23>   O      -2.220430     -5.753147      0.588962
| 24>   N      -9.745311      5.496255     -0.573842
| 25>   O      -9.743636      6.717777     -0.679641
| 26>   O     -10.752415      4.799062     -0.549419
| 27>   H      -5.801857      4.473752     -0.324826
| 28>   H      -3.710825      3.198599     -0.145665
| 29>   H      -2.521395      1.044833      0.065122
| 30>   H      -2.543560     -1.380315      0.248395
| 31>   H      -6.082214     -4.744086      0.362422
| 32>   H      -8.162647     -3.472835      0.189535
| 33>   H      -9.362196     -1.316904     -0.019269
| 34>   H      -9.344753      1.108029     -0.204601
| 35>   H      -9.292759      3.014298     -0.346810
| 36>   H      -2.571249     -3.280360      0.381038
| 37>   H      -7.638684      5.607435     -0.508201
| 38>   H      -4.299567     -5.810435      0.525132
| 39>   H      -2.334644     -6.707914      0.665653
| 40> *
| 41>
| 42>                          ****END OF INPUT****
 Total Charge           Charge          ....    0
 Multiplicity           Mult            ....    1
 Number of Electrons    NEL             ....  164
FINAL SINGLE POINT ENERGY     -1048.925655675498
                    ***********************HURRAY********************

CARTESIAN COORDINATES (ANGSTROEM)
---------------------------------
  C     -7.109645    2.748198   -0.247239
  C     -5.849183    3.386430   -0.246301
  C     -4.668510    2.673865   -0.145513
  C     -4.682045    1.267309   -0.038872
  C     -3.473560    0.508534    0.066608
  C     -3.493394   -0.853523    0.169551
  C     -4.722628   -1.597969    0.177730
  C     -4.759138   -3.025665    0.284661
  C     -6.023474   -3.656513    0.283852
  C     -7.206078   -2.943047    0.184327
  C     -7.200850   -1.538995    0.077494
  C     -8.408708   -0.780290   -0.027205
  C     -8.393673    0.581794   -0.131108
  C     -7.161242    1.320646   -0.139879
  C     -5.933742    0.577422   -0.035188
  C     -5.948784   -0.854200    0.073501
  C     -8.331577    3.531816   -0.355509
  C     -3.526935   -3.806770    0.391246
  C     -8.438507    4.870197   -0.469976
  C     -3.428441   -5.146644    0.504458
  O     -2.221363   -5.752941    0.594423
  N     -9.747075    5.494782   -0.568199
  O     -9.747494    6.716670   -0.670060
  O    -10.753038    4.795953   -0.545096
  H     -5.800607    4.474067   -0.326432
  H     -3.709616    3.198666   -0.147445
  H     -2.520344    1.044035    0.063527
  H     -2.543409   -1.381169    0.247581
  H     -6.082759   -4.743797    0.363113
  H     -8.162972   -3.472476    0.187723
  H     -9.362201   -1.315901   -0.022800
  H     -9.343908    1.109145   -0.208360
  H     -9.291635    3.013311   -0.346886
  H     -2.571554   -3.280282    0.381093
  H     -7.640444    5.608613   -0.503572
  H     -4.300458   -5.809801    0.529936
  H     -2.335864   -6.707548    0.672561

 Multiplicity           Mult            ....    1
 Number of Electrons    NEL             ....  164
 Basis Dimension        Dim             ....  401

ORBITAL ENERGIES
----------------

  NO   OCC          E(Eh)            E(eV)
   0   2.0000     -19.185390      -522.0610
   1   2.0000     -19.141809      -520.8751
   2   2.0000     -19.141478      -520.8661
   3   2.0000     -14.540242      -395.6601
   4   2.0000     -10.263924      -279.2956
   5   2.0000     -10.232794      -278.4485
   6   2.0000     -10.221895      -278.1519
   7   2.0000     -10.217467      -278.0314
   8   2.0000     -10.217359      -278.0285
   9   2.0000     -10.215173      -277.9690
  10   2.0000     -10.211620      -277.8723
  11   2.0000     -10.210852      -277.8514
  12   2.0000     -10.210029      -277.8290
  13   2.0000     -10.208937      -277.7993
  14   2.0000     -10.206224      -277.7255
  15   2.0000     -10.204393      -277.6757
  16   2.0000     -10.204180      -277.6699
  17   2.0000     -10.203316      -277.6463
  18   2.0000     -10.203268      -277.6450
  19   2.0000     -10.202111      -277.6135
  20   2.0000     -10.201504      -277.5970
  21   2.0000     -10.201115      -277.5865
  22   2.0000     -10.200394      -277.5668
  23   2.0000     -10.192650      -277.3561
  24   2.0000      -1.200654       -32.6715
  25   2.0000      -1.069213       -29.0948
  26   2.0000      -1.026239       -27.9254
  27   2.0000      -0.896932       -24.4068
  28   2.0000      -0.863172       -23.4881
  29   2.0000      -0.837555       -22.7910
  30   2.0000      -0.830097       -22.5881
  31   2.0000      -0.805338       -21.9144
  32   2.0000      -0.785324       -21.3698
  33   2.0000      -0.763350       -20.7718
  34   2.0000      -0.750627       -20.4256
  35   2.0000      -0.733893       -19.9703
  36   2.0000      -0.721105       -19.6223
  37   2.0000      -0.682819       -18.5805
  38   2.0000      -0.644684       -17.5428
  39   2.0000      -0.638941       -17.3865
  40   2.0000      -0.626619       -17.0512
  41   2.0000      -0.614995       -16.7349
  42   2.0000      -0.586996       -15.9730
  43   2.0000      -0.575077       -15.6486
  44   2.0000      -0.563662       -15.3380
  45   2.0000      -0.542244       -14.7552
  46   2.0000      -0.536725       -14.6050
  47   2.0000      -0.529548       -14.4097
  48   2.0000      -0.520974       -14.1764
  49   2.0000      -0.517399       -14.0791
  50   2.0000      -0.512784       -13.9535
  51   2.0000      -0.503503       -13.7010
  52   2.0000      -0.483459       -13.1556
  53   2.0000      -0.477748       -13.0002
  54   2.0000      -0.463482       -12.6120
  55   2.0000      -0.454367       -12.3639
  56   2.0000      -0.450280       -12.2527
  57   2.0000      -0.434125       -11.8132
  58   2.0000      -0.431528       -11.7425
  59   2.0000      -0.427174       -11.6240
  60   2.0000      -0.417935       -11.3726
  61   2.0000      -0.414921       -11.2906
  62   2.0000      -0.408504       -11.1160
  63   2.0000      -0.404800       -11.0152
  64   2.0000      -0.401550       -10.9267
  65   2.0000      -0.388329       -10.5670
  66   2.0000      -0.385071       -10.4783
  67   2.0000      -0.379553       -10.3282
  68   2.0000      -0.361024        -9.8240
  69   2.0000      -0.358346        -9.7511
  70   2.0000      -0.344589        -9.3767
  71   2.0000      -0.338840        -9.2203
  72   2.0000      -0.331724        -9.0267
  73   2.0000      -0.303227        -8.2512
  74   2.0000      -0.293377        -7.9832
  75   2.0000      -0.293329        -7.9819
  76   2.0000      -0.291082        -7.9207
  77   2.0000      -0.275173        -7.4878
  78   2.0000      -0.269067        -7.3217
  79   2.0000      -0.250033        -6.8037
  80   2.0000      -0.240610        -6.5473
  81   2.0000      -0.198686        -5.4065
  82   0.0000      -0.099716        -2.7134
  83   0.0000      -0.061858        -1.6832
  84   0.0000      -0.045311        -1.2330
  85   0.0000      -0.024654        -0.6709
  86   0.0000      -0.012115        -0.3297

MULLIKEN ATOMIC CHARGES
-----------------------
   0 C :    0.074996
   1 C :   -0.022624
   2 C :   -0.030402
   3 C :    0.073316
   4 C :   -0.012362
   5 C :   -0.027130
   6 C :    0.055546
   7 C :    0.103837
   8 C :   -0.044626
   9 C :   -0.024236
  10 C :    0.061156
  11 C :   -0.003848
  12 C :   -0.041984
  13 C :    0.079650
  14 C :    0.054148
  15 C :    0.067374
  16 C :    0.040631
  17 C :   -0.021537
  18 C :    0.059713
  19 C :    0.076135
  20 O :   -0.182053
  21 N :    0.232631
  22 O :   -0.262682
  23 O :   -0.259556
  24 H :   -0.022488
  25 H :   -0.028235
  26 H :   -0.029648
  27 H :   -0.029123
  28 H :   -0.039312
  29 H :   -0.030163
  30 H :   -0.027369
  31 H :   -0.025957
  32 H :    0.014442
  33 H :   -0.015709
  34 H :    0.003658
  35 H :   -0.002519
  36 H :    0.186326
Sum of atomic charges:   -0.0000000

LOEWDIN ATOMIC CHARGES
----------------------
   0 C :   -0.038171
   1 C :   -0.002201
   2 C :   -0.021211
   3 C :   -0.003678
   4 C :   -0.019249
   5 C :   -0.004799
   6 C :   -0.017898
   7 C :   -0.001120
   8 C :   -0.025996
   9 C :   -0.008589
  10 C :   -0.025620
  11 C :   -0.003567
  12 C :   -0.024768
  13 C :    0.005785
  14 C :    0.001321
  15 C :    0.004867
  16 C :    0.025207
  17 C :   -0.089316
  18 C :   -0.028407
  19 C :    0.065197
  20 O :   -0.042659
  21 N :    0.272386
  22 O :   -0.221949
  23 O :   -0.230542
  24 H :    0.029554
  25 H :    0.029525
  26 H :    0.029322
  27 H :    0.028959
  28 H :    0.022071
  29 H :    0.028773
  30 H :    0.030539
  31 H :    0.030572
  32 H :    0.037857
  33 H :    0.031329
  34 H :    0.027923
  35 H :    0.011127
  36 H :    0.097425

  Mayer bond orders larger than 0.100000
B(  0-C ,  1-C ) :   1.2976 B(  0-C , 13-C ) :   1.2457 B(  0-C , 16-C ) :   1.1126
B(  1-C ,  2-C ) :   1.4063 B(  1-C , 24-H ) :   0.9788 B(  2-C ,  3-C ) :   1.2613
B(  2-C , 25-H ) :   0.9883 B(  3-C ,  4-C ) :   1.1663 B(  3-C , 14-C ) :   1.2413
B(  4-C ,  5-C ) :   1.5331 B(  4-C , 26-H ) :   0.9845 B(  5-C ,  6-C ) :   1.1709
B(  5-C , 27-H ) :   0.9790 B(  6-C ,  7-C ) :   1.2603 B(  6-C , 15-C ) :   1.2335
B(  7-C ,  8-C ) :   1.3036 B(  7-C , 17-C ) :   1.1196 B(  8-C ,  9-C ) :   1.4049
B(  8-C , 28-H ) :   0.9760 B(  9-C , 10-C ) :   1.2686 B(  9-C , 29-H ) :   0.9862
B( 10-C , 11-C ) :   1.1625 B( 10-C , 15-C ) :   1.2453 B( 11-C , 12-C ) :   1.5329
B( 11-C , 30-H ) :   0.9838 B( 12-C , 13-C ) :   1.1755 B( 12-C , 31-H ) :   0.9796
B( 13-C , 14-C ) :   1.2353 B( 14-C , 15-C ) :   1.2284 B( 16-C , 18-C ) :   1.6359
B( 16-C , 32-H ) :   0.9447 B( 17-C , 19-C ) :   1.7117 B( 17-C , 33-H ) :   0.9546
B( 18-C , 21-N ) :   0.9436 B( 18-C , 34-H ) :   0.9834 B( 19-C , 20-O ) :   1.2129
B( 19-C , 35-H ) :   0.9536 B( 20-O , 36-H ) :   0.9635 B( 21-N , 22-O ) :   1.4910
B( 21-N , 23-O ) :   1.5159 B( 22-O , 23-O ) :   0.2714

FINAL SINGLE POINT ENERGY     -1048.925656749707

DIPOLE MOMENT
-------------
                                X             Y             Z
Electronic contribution:     -6.20374       9.33614      -0.96857
Nuclear contribution   :      8.20002     -12.60425       1.30695
                        -----------------------------------------
Total Dipole Moment    :      1.99628      -3.26811       0.33838
                        -----------------------------------------
Magnitude (a.u.)       :      3.84450
Magnitude (Debye)      :      9.77193

VIBRATIONAL FREQUENCIES
-----------------------

Scaling factor for frequencies =  1.000000000  (already applied!)

   0:         0.00 cm**-1
   1:         0.00 cm**-1
   2:         0.00 cm**-1
   3:         0.00 cm**-1
   4:         0.00 cm**-1
   5:         0.00 cm**-1
   6:       -73.21 cm**-1 ***imaginary mode***
   7:        21.55 cm**-1
   8:        29.91 cm**-1
   9:        66.10 cm**-1
  10:        67.34 cm**-1
  11:       100.90 cm**-1
  12:       120.65 cm**-1
  13:       122.32 cm**-1
  14:       162.08 cm**-1
  15:       205.99 cm**-1
  16:       216.07 cm**-1
  17:       221.43 cm**-1
  18:       252.84 cm**-1
  19:       262.56 cm**-1
  20:       300.35 cm**-1
  21:       309.11 cm**-1
  22:       340.27 cm**-1
  23:       353.84 cm**-1
  24:       392.18 cm**-1
  25:       422.77 cm**-1
  26:       451.65 cm**-1
  27:       453.99 cm**-1
  28:       503.71 cm**-1
  29:       523.29 cm**-1
  30:       525.78 cm**-1
  31:       532.18 cm**-1
  32:       560.98 cm**-1
  33:       570.11 cm**-1
  34:       579.49 cm**-1
  35:       604.99 cm**-1
  36:       634.18 cm**-1
  37:       667.52 cm**-1
  38:       701.85 cm**-1
  39:       719.11 cm**-1
  40:       737.03 cm**-1
  41:       741.39 cm**-1
  42:       761.96 cm**-1
  43:       774.96 cm**-1
  44:       802.23 cm**-1
  45:       818.35 cm**-1
  46:       819.99 cm**-1
  47:       839.96 cm**-1
  48:       854.28 cm**-1
  49:       864.07 cm**-1
  50:       876.52 cm**-1
  51:       884.36 cm**-1
  52:       894.66 cm**-1
  53:       945.26 cm**-1
  54:       948.22 cm**-1
  55:       986.76 cm**-1
  56:       991.88 cm**-1
  57:       995.53 cm**-1
  58:       999.86 cm**-1
  59:      1009.91 cm**-1
  60:      1012.44 cm**-1
  61:      1016.09 cm**-1
  62:      1020.05 cm**-1
  63:      1115.57 cm**-1
  64:      1131.86 cm**-1
  65:      1168.39 cm**-1
  66:      1184.01 cm**-1
  67:      1195.80 cm**-1
  68:      1204.29 cm**-1
  69:      1208.03 cm**-1
  70:      1231.23 cm**-1
  71:      1237.43 cm**-1
  72:      1264.10 cm**-1
  73:      1268.55 cm**-1
  74:      1278.86 cm**-1
  75:      1285.19 cm**-1
  76:      1320.71 cm**-1
  77:      1333.61 cm**-1
  78:      1351.38 cm**-1
  79:      1371.24 cm**-1
  80:      1381.93 cm**-1
  81:      1399.65 cm**-1
  82:      1407.14 cm**-1
  83:      1414.38 cm**-1
  84:      1426.75 cm**-1
  85:      1444.00 cm**-1
  86:      1469.48 cm**-1
  87:      1506.15 cm**-1
  88:      1537.00 cm**-1
  89:      1548.31 cm**-1
  90:      1574.38 cm**-1
  91:      1621.58 cm**-1
  92:      1629.26 cm**-1
  93:      1645.49 cm**-1
  94:      1659.91 cm**-1
  95:      1669.04 cm**-1
  96:      1694.79 cm**-1
  97:      1733.31 cm**-1
  98:      3155.20 cm**-1
  99:      3172.33 cm**-1
 100:      3175.70 cm**-1
 101:      3175.92 cm**-1
 102:      3179.14 cm**-1
 103:      3194.64 cm**-1
 104:      3199.49 cm**-1
 105:      3200.24 cm**-1
 106:      3205.90 cm**-1
 107:      3223.68 cm**-1
 108:      3224.10 cm**-1
 109:      3254.17 cm**-1
 110:      3849.25 cm**-1

IR SPECTRUM
-----------

 Mode   freq       eps      Int      T**2         TX        TY        TZ
       cm**-1   L/(mol*cm) km/mol    a.u.
----------------------------------------------------------------------------
  7:     21.55   0.000009    0.05  0.000132  ( 0.000966 -0.001390 -0.011356)
  8:     29.91   0.000161    0.81  0.001680  ( 0.000845 -0.002953 -0.040871)
  9:     66.10   0.000023    0.12  0.000108  ( 0.000448 -0.001397 -0.010278)
 10:     67.34   0.000236    1.19  0.001094  (-0.007486 -0.032131  0.002407)
 11:    100.90   0.000386    1.95  0.001192  ( 0.001120 -0.003023 -0.034380)
 12:    120.65   0.000492    2.48  0.001271  ( 0.000920  0.003006  0.035519)
 13:    122.32   0.000298    1.51  0.000760  ( 0.025011  0.011362 -0.002305)
 14:    162.08   0.000038    0.19  0.000073  (-0.000517  0.001419  0.008423)
 15:    205.99   0.000118    0.60  0.000179  ( 0.000080  0.001399  0.013293)
 16:    216.07   0.000004    0.02  0.000006  ( 0.002250 -0.000864  0.000315)
 17:    221.43   0.001364    6.89  0.001922  ( 0.001763 -0.003511 -0.043669)
 18:    252.84   0.000129    0.65  0.000159  ( 0.011755  0.004505 -0.000354)
 19:    262.56   0.000018    0.09  0.000021  ( 0.000314 -0.000647 -0.004537)
 20:    300.35   0.003359   16.97  0.003490  ( 0.002148 -0.005581 -0.058772)
 21:    309.11   0.000665    3.36  0.000671  (-0.016966  0.019489 -0.001819)
 22:    340.27   0.015299   77.32  0.014031  (-0.003835  0.010241  0.117948)
 23:    353.84   0.000666    3.37  0.000587  ( 0.015105 -0.018951  0.000287)
 24:    392.18   0.002187   11.05  0.001740  ( 0.001612 -0.003765 -0.041512)
 25:    422.77   0.001681    8.50  0.001241  ( 0.019734 -0.029032  0.002988)
 26:    451.65   0.000054    0.27  0.000038  ( 0.001620 -0.001855 -0.005607)
 27:    453.99   0.001837    9.29  0.001263  (-0.026131  0.023879 -0.003157)
 28:    503.71   0.000676    3.42  0.000419  (-0.008495  0.018546 -0.001695)
 29:    523.29   0.000138    0.70  0.000082  (-0.005354 -0.007315  0.000332)
 30:    525.78   0.000008    0.04  0.000005  ( 0.000090 -0.000058  0.002148)
 31:    532.18   0.001653    8.35  0.000969  ( 0.008646 -0.029791  0.002656)
 32:    560.98   0.000467    2.36  0.000260  (-0.000675  0.001215  0.016060)
 33:    570.11   0.000391    1.98  0.000214  ( 0.000822 -0.001491 -0.014538)
 34:    579.49   0.001071    5.41  0.000577  ( 0.008047 -0.022513  0.002302)
 35:    604.99   0.003100   15.66  0.001599  (-0.021020  0.033856 -0.003276)
 36:    634.18   0.001646    8.32  0.000810  (-0.014056  0.024627 -0.002445)
 37:    667.52   0.000067    0.34  0.000031  ( 0.000200 -0.000435 -0.005564)
 38:    701.85   0.000087    0.44  0.000039  (-0.005741  0.002382 -0.000367)
 39:    719.11   0.001113    5.62  0.000483  (-0.000691  0.001426  0.021917)
 40:    737.03   0.000423    2.14  0.000179  (-0.011150 -0.007411  0.000108)
 41:    741.39   0.000087    0.44  0.000036  ( 0.000306 -0.000424 -0.006014)
 42:    761.96   0.002837   14.34  0.001162  (-0.001337  0.002749  0.033950)
 43:    774.96   0.001796    9.08  0.000723  ( 0.020687 -0.017051  0.002177)
 44:    802.23   0.009981   50.44  0.003882  (-0.046922  0.040701 -0.004921)
 45:    818.35   0.000014    0.07  0.000005  ( 0.000423 -0.000816 -0.002156)
 46:    819.99   0.005291   26.74  0.002014  ( 0.009668 -0.043665  0.003702)
 47:    839.96   0.004190   21.18  0.001557  ( 0.001445 -0.002994 -0.039316)
 48:    854.28   0.000790    3.99  0.000288  (-0.000614  0.001534  0.016902)
 49:    864.07   0.001679    8.49  0.000606  ( 0.010400 -0.022223  0.002106)
 50:    876.52   0.004850   24.51  0.001727  ( 0.001515 -0.002792 -0.041431)
 51:    884.36   0.004956   25.04  0.001749  (-0.001507  0.003308  0.041659)
 52:    894.66   0.001635    8.26  0.000570  (-0.001113  0.002078  0.023765)
 53:    945.26   0.000074    0.38  0.000025  (-0.000121  0.000376  0.004937)
 54:    948.22   0.006769   34.21  0.002228  (-0.001303  0.003187  0.047073)
 55:    986.76   0.014350   72.52  0.004538  (-0.034004  0.057881 -0.005621)
 56:    991.88   0.000166    0.84  0.000052  (-0.000512  0.001031  0.007130)
 57:    995.53   0.000755    3.81  0.000237  (-0.000459  0.001025  0.015338)
 58:    999.86   0.001320    6.67  0.000412  ( 0.012401 -0.015969  0.001780)
 59:   1009.91   0.025437  128.55  0.007860  ( 0.048892 -0.073577  0.007494)
 60:   1012.44   0.001557    7.87  0.000480  (-0.000733  0.001588  0.021835)
 61:   1016.09   0.000692    3.50  0.000213  (-0.000524  0.001209  0.014521)
 62:   1020.05   0.000197    1.00  0.000060  (-0.000173  0.000463  0.007754)
 63:   1115.57   0.002049   10.36  0.000573  ( 0.007180 -0.022750  0.002025)
 64:   1131.86   0.000176    0.89  0.000048  (-0.006778  0.001534 -0.000354)
 65:   1168.39   0.002676   13.52  0.000715  (-0.003365  0.026424 -0.002259)
 66:   1184.01   0.000295    1.49  0.000078  (-0.001499  0.008653 -0.000778)
 67:   1195.80   0.000025    0.12  0.000006  ( 0.002285  0.001102  0.000029)
 68:   1204.29   0.002491   12.59  0.000645  ( 0.024879 -0.004977  0.001299)
 69:   1208.03   0.022417  113.29  0.005791  ( 0.064396 -0.040158  0.005597)
 70:   1231.23   0.046763  236.32  0.011852  ( 0.059332 -0.090807  0.009285)
 71:   1237.43   0.096218  486.25  0.024265  ( 0.096584 -0.121517  0.013046)
 72:   1264.10   0.032629  164.89  0.008055  (-0.044627  0.077481 -0.007763)
 73:   1268.55   0.000391    1.98  0.000096  ( 0.007373  0.006469 -0.000251)
 74:   1278.86   0.025780  130.28  0.006291  ( 0.041590 -0.067186  0.006864)
 75:   1285.19   0.023748  120.01  0.005766  ( 0.047246 -0.059096  0.006473)
 76:   1320.71   0.001495    7.56  0.000353  (-0.011227  0.014984 -0.001659)
 77:   1333.61   0.007279   36.78  0.001703  (-0.022811  0.034219 -0.003452)
 78:   1351.38   0.001003    5.07  0.000232  (-0.010206 -0.011279  0.000578)
 79:   1371.24   0.000265    1.34  0.000060  ( 0.002670  0.007271 -0.000511)
 80:   1381.93   0.015224   76.94  0.003438  ( 0.047934 -0.033481  0.004389)
 81:   1399.65   0.219022  1106.85  0.048833  ( 0.145221 -0.165535  0.018487)
 82:   1407.14   0.000083    0.42  0.000018  (-0.004209 -0.000832 -0.000156)
 83:   1414.38   0.007206   36.41  0.001590  ( 0.028615 -0.027568  0.003323)
 84:   1426.75   0.002308   11.66  0.000505  (-0.001284  0.022357 -0.001797)
 85:   1444.00   0.000043    0.22  0.000009  (-0.002189 -0.002107  0.000080)
 86:   1469.48   0.003183   16.08  0.000676  ( 0.021369 -0.014684  0.001910)
 87:   1506.15   0.000615    3.11  0.000128  (-0.004262 -0.010437  0.000640)
 88:   1537.00   0.000649    3.28  0.000132  (-0.011413 -0.001170 -0.000340)
 89:   1548.31   0.004482   22.65  0.000903  (-0.008049  0.028847 -0.002535)
 90:   1574.38   0.004275   21.60  0.000847  (-0.020564  0.020462 -0.002397)
 91:   1621.58   0.001828    9.24  0.000352  (-0.003352  0.018390 -0.001560)
 92:   1629.26   0.051477  260.15  0.009860  ( 0.089169 -0.043216  0.006408)
 93:   1645.49   0.028121  142.11  0.005333  (-0.011585  0.071829 -0.006289)
 94:   1659.91   0.003900   19.71  0.000733  (-0.020154 -0.018070  0.000699)
 95:   1669.04   0.036457  184.24  0.006816  (-0.016320  0.080627 -0.007023)
 96:   1694.79   0.043473  219.70  0.008005  ( 0.013146 -0.088160  0.007733)
 97:   1733.31   0.083118  420.05  0.014965  (-0.061007  0.105504 -0.010566)
 98:   3155.20   0.002099   10.61  0.000208  (-0.014291 -0.001802 -0.000314)
 99:   3172.33   0.000185    0.93  0.000018  (-0.002800  0.003193 -0.000363)
100:   3175.70   0.002354   11.89  0.000231  (-0.015192  0.000309 -0.000619)
101:   3175.92   0.000170    0.86  0.000017  ( 0.004047  0.000557  0.000119)
102:   3179.14   0.002192   11.08  0.000215  ( 0.014626 -0.000892  0.000652)
103:   3194.64   0.004763   24.07  0.000465  (-0.006265 -0.020596  0.001341)
104:   3199.49   0.001813    9.16  0.000177  ( 0.005765  0.011962 -0.000687)
105:   3200.24   0.001613    8.15  0.000157  ( 0.004406 -0.011694  0.001057)
106:   3205.90   0.000921    4.65  0.000090  (-0.008987 -0.002971 -0.000083)
107:   3223.68   0.002945   14.88  0.000285  (-0.016066  0.005093 -0.001009)
108:   3224.10   0.000259    1.31  0.000025  ( 0.004401 -0.002361  0.000375)
109:   3254.17   0.003161   15.98  0.000303  ( 0.008815 -0.014935  0.001545)
110:   3849.25   0.066220  334.65  0.005369  ( 0.022944 -0.069278  0.006534)

--------------------------
THERMOCHEMISTRY AT 298.15K
--------------------------

Temperature         ... 298.15 K
Pressure            ... 1.00 atm
Total Mass          ... 315.33 AMU

Throughout the following assumptions are being made:
  (1) The electronic state is orbitally nondegenerate
  (2) There are no thermally accessible electronically excited states
  (3) Hindered rotations indicated by low frequency modes are not
      treated as such but are treated as vibrations and this may
      cause some error
  (4) All equations used are the standard statistical mechanics
      equations for an ideal gas
  (5) All vibrations are strictly harmonic

freq.      21.55  E(vib)   ...       0.56
freq.      29.91  E(vib)   ...       0.55
freq.      66.10  E(vib)   ...       0.50
freq.      67.34  E(vib)   ...       0.50
freq.     100.90  E(vib)   ...       0.46
freq.     120.65  E(vib)   ...       0.44
freq.     122.32  E(vib)   ...       0.43
freq.     162.08  E(vib)   ...       0.39
freq.     205.99  E(vib)   ...       0.35
freq.     216.07  E(vib)   ...       0.34
freq.     221.43  E(vib)   ...       0.33
freq.     252.84  E(vib)   ...       0.30
freq.     262.56  E(vib)   ...       0.29
freq.     300.35  E(vib)   ...       0.26
freq.     309.11  E(vib)   ...       0.26
freq.     340.27  E(vib)   ...       0.23
freq.     353.84  E(vib)   ...       0.22
freq.     392.18  E(vib)   ...       0.20
freq.     422.77  E(vib)   ...       0.18
freq.     451.65  E(vib)   ...       0.16
freq.     453.99  E(vib)   ...       0.16
freq.     503.71  E(vib)   ...       0.14
freq.     523.29  E(vib)   ...       0.13
freq.     525.78  E(vib)   ...       0.13
freq.     532.18  E(vib)   ...       0.13
freq.     560.98  E(vib)   ...       0.11
freq.     570.11  E(vib)   ...       0.11
freq.     579.49  E(vib)   ...       0.11
freq.     604.99  E(vib)   ...       0.10
freq.     634.18  E(vib)   ...       0.09
freq.     667.52  E(vib)   ...       0.08
freq.     701.85  E(vib)   ...       0.07
freq.     719.11  E(vib)   ...       0.07
freq.     737.03  E(vib)   ...       0.06
freq.     741.39  E(vib)   ...       0.06
freq.     761.96  E(vib)   ...       0.06
freq.     774.96  E(vib)   ...       0.05
freq.     802.23  E(vib)   ...       0.05
freq.     818.35  E(vib)   ...       0.05
freq.     819.99  E(vib)   ...       0.05
freq.     839.96  E(vib)   ...       0.04
freq.     854.28  E(vib)   ...       0.04
freq.     864.07  E(vib)   ...       0.04
freq.     876.52  E(vib)   ...       0.04
freq.     884.36  E(vib)   ...       0.04
freq.     894.66  E(vib)   ...       0.03
freq.     945.26  E(vib)   ...       0.03
freq.     948.22  E(vib)   ...       0.03
freq.     986.76  E(vib)   ...       0.02
freq.     991.88  E(vib)   ...       0.02
freq.     995.53  E(vib)   ...       0.02
freq.     999.86  E(vib)   ...       0.02
freq.    1009.91  E(vib)   ...       0.02
freq.    1012.44  E(vib)   ...       0.02
freq.    1016.09  E(vib)   ...       0.02
freq.    1020.05  E(vib)   ...       0.02
freq.    1115.57  E(vib)   ...       0.01
freq.    1131.86  E(vib)   ...       0.01
freq.    1168.39  E(vib)   ...       0.01
freq.    1184.01  E(vib)   ...       0.01
freq.    1195.80  E(vib)   ...       0.01
freq.    1204.29  E(vib)   ...       0.01
freq.    1208.03  E(vib)   ...       0.01
freq.    1231.23  E(vib)   ...       0.01
freq.    1237.43  E(vib)   ...       0.01
freq.    1264.10  E(vib)   ...       0.01
freq.    1268.55  E(vib)   ...       0.01
freq.    1278.86  E(vib)   ...       0.01
freq.    1285.19  E(vib)   ...       0.01
freq.    1320.71  E(vib)   ...       0.01
freq.    1333.61  E(vib)   ...       0.01
freq.    1351.38  E(vib)   ...       0.01
freq.    1371.24  E(vib)   ...       0.01
freq.    1381.93  E(vib)   ...       0.01
freq.    1399.65  E(vib)   ...       0.00
freq.    1407.14  E(vib)   ...       0.00
freq.    1414.38  E(vib)   ...       0.00
freq.    1426.75  E(vib)   ...       0.00
freq.    1444.00  E(vib)   ...       0.00
freq.    1469.48  E(vib)   ...       0.00
freq.    1506.15  E(vib)   ...       0.00
freq.    1537.00  E(vib)   ...       0.00
freq.    1548.31  E(vib)   ...       0.00
freq.    1574.38  E(vib)   ...       0.00
freq.    1621.58  E(vib)   ...       0.00
freq.    1629.26  E(vib)   ...       0.00
freq.    1645.49  E(vib)   ...       0.00
freq.    1659.91  E(vib)   ...       0.00
freq.    1669.04  E(vib)   ...       0.00
freq.    1694.79  E(vib)   ...       0.00
freq.    1733.31  E(vib)   ...       0.00
freq.    3155.20  E(vib)   ...       0.00
freq.    3172.33  E(vib)   ...       0.00
freq.    3175.70  E(vib)   ...       0.00
freq.    3175.92  E(vib)   ...       0.00
freq.    3179.14  E(vib)   ...       0.00
freq.    3194.64  E(vib)   ...       0.00
freq.    3199.49  E(vib)   ...       0.00
freq.    3200.24  E(vib)   ...       0.00
freq.    3205.90  E(vib)   ...       0.00
freq.    3223.68  E(vib)   ...       0.00
freq.    3224.10  E(vib)   ...       0.00
freq.    3254.17  E(vib)   ...       0.00
freq.    3849.25  E(vib)   ...       0.00

------------
INNER ENERGY
------------

The inner energy is: U= E(el) + E(ZPE) + E(vib) + E(rot) + E(trans)
    E(el)   - is the total energy from the electronic structure calculation
              = E(kin-el) + E(nuc-el) + E(el-el) + E(nuc-nuc)
    E(ZPE)  - the the zero temperature vibrational energy from the frequency calculation
    E(vib)  - the the finite temperature correction to E(ZPE) due to population
              of excited vibrational states
    E(rot)  - is the rotational thermal energy
    E(trans)- is the translational thermal energy

Summary of contributions to the inner energy U:
Electronic energy                ...  -1048.92565675 Eh
Zero point energy                ...      0.28184435 Eh     176.86 kcal/mol
Thermal vibrational correction   ...      0.01505405 Eh       9.45 kcal/mol
Thermal rotational correction    ...      0.00141627 Eh       0.89 kcal/mol
Thermal translational correction ...      0.00141627 Eh       0.89 kcal/mol
-----------------------------------------------------------------------
Total thermal energy                  -1048.62592581 Eh

Summary of corrections to the electronic energy:
(perhaps to be used in another calculation)
Total thermal correction                  0.01788659 Eh      11.22 kcal/mol
Non-thermal (ZPE) correction              0.28184435 Eh     176.86 kcal/mol
-----------------------------------------------------------------------
Total correction                          0.29973094 Eh     188.08 kcal/mol

--------
ENTHALPY
--------

The enthalpy is H = U + kB*T
                kB is Boltzmann's constant
Total free energy                 ...  -1048.62592581 Eh
Thermal Enthalpy correction       ...      0.00094421 Eh       0.59 kcal/mol

Rotational constants in cm-1:     0.024969     0.003302     0.002916

                             ****ORCA TERMINATED NORMALLY****
TOTAL RUN TIME: 0 days 0 hours 21 minutes 51 seconds 522 msec
