                         Program Version 5.0.4 -  RELEASE  -
|  1> ! B3LYP def2-SVP Opt PAL8 FREQ defgrid3 slowconv VeryTightSCF
|  2> *xyz 0 1
|  3>  C        -7.109488        2.747932       -0.251592
|  4>  C        -5.849081        3.386249       -0.249724
|  5>  C        -4.668333        2.673554       -0.150711
|  6>  C        -4.681862        1.266993       -0.044244
|  7>  C        -3.473150        0.507769        0.055206
|  8>  C        -3.493235       -0.853724        0.165407
|  9>  C        -4.723148       -1.596862        0.192636
| 10>  C        -4.760809       -3.022430        0.328266
| 11>  C        -6.025297       -3.653055        0.328396
| 12>  C        -7.206496       -2.942172        0.194489
| 13>  C        -7.200663       -1.539221        0.073016
| 14>  C        -8.408253       -0.781066       -0.038411
| 15>  C        -8.393267        0.581087       -0.141482
| 16>  C        -7.161001        1.320226       -0.146072
| 17>  C        -5.933591        0.577185       -0.038927
| 18>  C        -5.948808       -0.854045        0.075083
| 19>  C        -8.331470        3.531619       -0.358725
| 20>  C        -3.530734       -3.799346        0.489505
| 21>  C        -8.438500        4.870168       -0.471162
| 22>  C        -3.424090       -5.157468        0.379819
| 23>  O        -2.220919       -5.752094        0.600935
| 24>  N        -9.747111        5.494801       -0.568419
| 25>  O        -9.747588        6.716759       -0.669462
| 26>  O       -10.753056        4.795939       -0.545462
| 27>  H        -5.800566        4.473983       -0.328581
| 28>  H        -3.709393        3.198267       -0.153764
| 29>  H        -2.519411        1.042263        0.038974
| 30>  H        -2.542511       -1.382321        0.227734
| 31>  H        -6.087249       -4.735796        0.467796
| 32>  H        -8.163685       -3.471019        0.205140
| 33>  H        -9.361600       -1.316969       -0.037570
| 34>  H        -9.343372        1.108181       -0.222064
| 35>  H        -9.291505        3.013066       -0.350542
| 36>  H        -2.584166       -3.252009        0.736304
| 37>  H        -7.640482        5.608671       -0.503913
| 38>  H        -4.285416       -5.846261        0.102861
| 39>  H        -2.327319       -6.727624        0.435245
| 40> *
| 41>
| 42>                          ****END OF INPUT****
 Total Charge           Charge          ....    0
 Multiplicity           Mult            ....    1
 Number of Electrons    NEL             ....  164
FINAL SINGLE POINT ENERGY     -1048.922778861794
FINAL SINGLE POINT ENERGY     -1048.925793883041
FINAL SINGLE POINT ENERGY     -1048.925898572330
FINAL SINGLE POINT ENERGY     -1048.925292605200
FINAL SINGLE POINT ENERGY     -1048.925987103752
FINAL SINGLE POINT ENERGY     -1048.926010056772
FINAL SINGLE POINT ENERGY     -1048.926058430910
FINAL SINGLE POINT ENERGY     -1048.926063518910
FINAL SINGLE POINT ENERGY     -1048.926065011068
                    ***********************HURRAY********************

CARTESIAN COORDINATES (ANGSTROEM)
---------------------------------
  C     -7.105512    2.739110   -0.262962
  C     -5.843200    3.374401   -0.266591
  C     -4.664723    2.661330   -0.146770
  C     -4.681698    1.256922   -0.012659
  C     -3.474433    0.496777    0.104136
  C     -3.499049   -0.863050    0.235402
  C     -4.733304   -1.597292    0.270901
  C     -4.772442   -3.019201    0.415550
  C     -6.033054   -3.653519    0.423904
  C     -7.216152   -2.943414    0.280131
  C     -7.208557   -1.543099    0.140138
  C     -8.414420   -0.783111    0.009941
  C     -8.395284    0.576672   -0.117252
  C     -7.161259    1.314461   -0.128930
  C     -5.936229    0.571608   -0.000108
  C     -5.956409   -0.856686    0.139099
  C     -8.324880    3.523346   -0.394389
  C     -3.542530   -3.801690    0.566854
  C     -8.428432    4.860366   -0.525248
  C     -3.405262   -5.101607    0.240215
  O     -2.245669   -5.766950    0.452542
  N     -9.735296    5.485266   -0.646643
  O     -9.732972    6.705873   -0.761884
  O    -10.742084    4.787614   -0.629151
  H     -5.791767    4.460096   -0.368426
  H     -3.704679    3.183970   -0.155987
  H     -2.519647    1.029032    0.080813
  H     -2.554470   -1.402831    0.305569
  H     -6.083294   -4.733126    0.581653
  H     -8.173868   -3.471127    0.297854
  H     -9.369228   -1.316365    0.014264
  H     -9.343796    1.104183   -0.212668
  H     -9.285747    3.006319   -0.390963
  H     -2.651714   -3.313979    0.970323
  H     -7.629360    5.597821   -0.556584
  H     -4.217817   -5.676320   -0.220734
  H     -2.308390   -6.660569    0.094644

 Multiplicity           Mult            ....    1
 Number of Electrons    NEL             ....  164
 Basis Dimension        Dim             ....  401

ORBITAL ENERGIES
----------------

  NO   OCC          E(Eh)            E(eV)
   0   2.0000     -19.183712      -522.0153
   1   2.0000     -19.142411      -520.8915
   2   2.0000     -19.142075      -520.8823
   3   2.0000     -14.540828      -395.6760
   4   2.0000     -10.262361      -279.2530
   5   2.0000     -10.233446      -278.4662
   6   2.0000     -10.222463      -278.1674
   7   2.0000     -10.217894      -278.0430
   8   2.0000     -10.215922      -277.9894
   9   2.0000     -10.215854      -277.9875
  10   2.0000     -10.212196      -277.8880
  11   2.0000     -10.211204      -277.8610
  12   2.0000     -10.209361      -277.8108
  13   2.0000     -10.208933      -277.7992
  14   2.0000     -10.206713      -277.7388
  15   2.0000     -10.205071      -277.6941
  16   2.0000     -10.204176      -277.6697
  17   2.0000     -10.203824      -277.6602
  18   2.0000     -10.203305      -277.6460
  19   2.0000     -10.202746      -277.6308
  20   2.0000     -10.202123      -277.6139
  21   2.0000     -10.201036      -277.5843
  22   2.0000     -10.200773      -277.5772
  23   2.0000     -10.191812      -277.3333
  24   2.0000      -1.201279       -32.6885
  25   2.0000      -1.067674       -29.0529
  26   2.0000      -1.026880       -27.9428
  27   2.0000      -0.897339       -24.4178
  28   2.0000      -0.863470       -23.4962
  29   2.0000      -0.837864       -22.7994
  30   2.0000      -0.830367       -22.5954
  31   2.0000      -0.805513       -21.9191
  32   2.0000      -0.785218       -21.3669
  33   2.0000      -0.763320       -20.7710
  34   2.0000      -0.750991       -20.4355
  35   2.0000      -0.733761       -19.9667
  36   2.0000      -0.720799       -19.6139
  37   2.0000      -0.682982       -18.5849
  38   2.0000      -0.643675       -17.5153
  39   2.0000      -0.639018       -17.3886
  40   2.0000      -0.626672       -17.0526
  41   2.0000      -0.615037       -16.7360
  42   2.0000      -0.586429       -15.9575
  43   2.0000      -0.573560       -15.6074
  44   2.0000      -0.563424       -15.3315
  45   2.0000      -0.542375       -14.7588
  46   2.0000      -0.536901       -14.6098
  47   2.0000      -0.529589       -14.4109
  48   2.0000      -0.521555       -14.1922
  49   2.0000      -0.517719       -14.0878
  50   2.0000      -0.512493       -13.9457
  51   2.0000      -0.503674       -13.7057
  52   2.0000      -0.483538       -13.1577
  53   2.0000      -0.477808       -13.0018
  54   2.0000      -0.463126       -12.6023
  55   2.0000      -0.454181       -12.3589
  56   2.0000      -0.450734       -12.2651
  57   2.0000      -0.436963       -11.8904
  58   2.0000      -0.432720       -11.7749
  59   2.0000      -0.425834       -11.5875
  60   2.0000      -0.418460       -11.3869
  61   2.0000      -0.412838       -11.2339
  62   2.0000      -0.408657       -11.1201
  63   2.0000      -0.405146       -11.0246
  64   2.0000      -0.401913       -10.9366
  65   2.0000      -0.387980       -10.5575
  66   2.0000      -0.383718       -10.4415
  67   2.0000      -0.378199       -10.2913
  68   2.0000      -0.363173        -9.8824
  69   2.0000      -0.358128        -9.7452
  70   2.0000      -0.344957        -9.3868
  71   2.0000      -0.337124        -9.1736
  72   2.0000      -0.331855        -9.0302
  73   2.0000      -0.303418        -8.2564
  74   2.0000      -0.293872        -7.9967
  75   2.0000      -0.293830        -7.9955
  76   2.0000      -0.288701        -7.8559
  77   2.0000      -0.275754        -7.5036
  78   2.0000      -0.269423        -7.3314
  79   2.0000      -0.249898        -6.8001
  80   2.0000      -0.241042        -6.5591
  81   2.0000      -0.200637        -5.4596
  82   0.0000      -0.100139        -2.7249
  83   0.0000      -0.061851        -1.6831
  84   0.0000      -0.044546        -1.2122
  85   0.0000      -0.024525        -0.6674
  86   0.0000      -0.012177        -0.3313

MULLIKEN ATOMIC CHARGES
-----------------------
   0 C :    0.074749
   1 C :   -0.022302
   2 C :   -0.029908
   3 C :    0.073292
   4 C :   -0.010368
   5 C :   -0.029797
   6 C :    0.057535
   7 C :    0.078438
   8 C :   -0.040177
   9 C :   -0.026132
  10 C :    0.064238
  11 C :   -0.003900
  12 C :   -0.040452
  13 C :    0.078327
  14 C :    0.055005
  15 C :    0.065665
  16 C :    0.040577
  17 C :   -0.038037
  18 C :    0.060045
  19 C :    0.081444
  20 O :   -0.187071
  21 N :    0.232510
  22 O :   -0.262250
  23 O :   -0.259150
  24 H :   -0.022370
  25 H :   -0.028089
  26 H :   -0.029227
  27 H :   -0.026139
  28 H :   -0.032773
  29 H :   -0.028854
  30 H :   -0.026988
  31 H :   -0.025707
  32 H :    0.014643
  33 H :    0.001830
  34 H :    0.003912
  35 H :    0.001528
  36 H :    0.185952
Sum of atomic charges:   -0.0000000

LOEWDIN ATOMIC CHARGES
----------------------
   0 C :   -0.037696
   1 C :   -0.002478
   2 C :   -0.020571
   3 C :   -0.003793
   4 C :   -0.018464
   5 C :   -0.004699
   6 C :   -0.017771
   7 C :   -0.002664
   8 C :   -0.026841
   9 C :   -0.009313
  10 C :   -0.024770
  11 C :   -0.003237
  12 C :   -0.024475
  13 C :    0.005725
  14 C :    0.001160
  15 C :    0.004372
  16 C :    0.025217
  17 C :   -0.089350
  18 C :   -0.027950
  19 C :    0.062416
  20 O :   -0.045474
  21 N :    0.272380
  22 O :   -0.221536
  23 O :   -0.230146
  24 H :    0.029596
  25 H :    0.029622
  26 H :    0.029395
  27 H :    0.029504
  28 H :    0.023420
  29 H :    0.028851
  30 H :    0.030675
  31 H :    0.030659
  32 H :    0.037930
  33 H :    0.032411
  34 H :    0.028029
  35 H :    0.012659
  36 H :    0.097207

  Mayer bond orders larger than 0.100000
B(  0-C ,  1-C ) :   1.2964 B(  0-C , 13-C ) :   1.2481 B(  0-C , 16-C ) :   1.1119
B(  1-C ,  2-C ) :   1.4079 B(  1-C , 24-H ) :   0.9788 B(  2-C ,  3-C ) :   1.2606
B(  2-C , 25-H ) :   0.9882 B(  3-C ,  4-C ) :   1.1663 B(  3-C , 14-C ) :   1.2408
B(  4-C ,  5-C ) :   1.5281 B(  4-C , 26-H ) :   0.9853 B(  5-C ,  6-C ) :   1.1728
B(  5-C , 27-H ) :   0.9770 B(  6-C ,  7-C ) :   1.2715 B(  6-C , 15-C ) :   1.2310
B(  7-C ,  8-C ) :   1.3239 B(  7-C , 17-C ) :   1.0853 B(  8-C ,  9-C ) :   1.3804
B(  8-C , 28-H ) :   0.9767 B(  9-C , 10-C ) :   1.2795 B(  9-C , 29-H ) :   0.9872
B( 10-C , 11-C ) :   1.1580 B( 10-C , 15-C ) :   1.2420 B( 11-C , 12-C ) :   1.5380
B( 11-C , 30-H ) :   0.9837 B( 12-C , 13-C ) :   1.1729 B( 12-C , 31-H ) :   0.9795
B( 13-C , 14-C ) :   1.2353 B( 14-C , 15-C ) :   1.2295 B( 16-C , 18-C ) :   1.6370
B( 16-C , 32-H ) :   0.9447 B( 17-C , 19-C ) :   1.7366 B( 17-C , 33-H ) :   0.9477
B( 18-C , 21-N ) :   0.9430 B( 18-C , 34-H ) :   0.9834 B( 19-C , 20-O ) :   1.1999
B( 19-C , 35-H ) :   0.9571 B( 20-O , 36-H ) :   0.9645 B( 21-N , 22-O ) :   1.4914
B( 21-N , 23-O ) :   1.5163 B( 22-O , 23-O ) :   0.2717

FINAL SINGLE POINT ENERGY     -1048.926065338823

DIPOLE MOMENT
-------------
                                X             Y             Z
Electronic contribution:     -6.22856       9.35662      -0.86862
Nuclear contribution   :      8.23885     -12.49242       0.85970
                        -----------------------------------------
Total Dipole Moment    :      2.01029      -3.13580      -0.00893
                        -----------------------------------------
Magnitude (a.u.)       :      3.72486
Magnitude (Debye)      :      9.46784

VIBRATIONAL FREQUENCIES
-----------------------

Scaling factor for frequencies =  1.000000000  (already applied!)

   0:         0.00 cm**-1
   1:         0.00 cm**-1
   2:         0.00 cm**-1
   3:         0.00 cm**-1
   4:         0.00 cm**-1
   5:         0.00 cm**-1
   6:        21.22 cm**-1
   7:        29.32 cm**-1
   8:        57.51 cm**-1
   9:        65.93 cm**-1
  10:        96.31 cm**-1
  11:       100.64 cm**-1
  12:       119.38 cm**-1
  13:       123.25 cm**-1
  14:       167.10 cm**-1
  15:       212.31 cm**-1
  16:       215.54 cm**-1
  17:       222.43 cm**-1
  18:       252.76 cm**-1
  19:       266.25 cm**-1
  20:       303.70 cm**-1
  21:       306.93 cm**-1
  22:       343.90 cm**-1
  23:       357.00 cm**-1
  24:       392.09 cm**-1
  25:       421.94 cm**-1
  26:       452.31 cm**-1
  27:       457.02 cm**-1
  28:       503.41 cm**-1
  29:       523.16 cm**-1
  30:       527.40 cm**-1
  31:       533.54 cm**-1
  32:       561.36 cm**-1
  33:       569.96 cm**-1
  34:       579.19 cm**-1
  35:       604.21 cm**-1
  36:       632.72 cm**-1
  37:       666.19 cm**-1
  38:       701.50 cm**-1
  39:       719.32 cm**-1
  40:       735.06 cm**-1
  41:       742.01 cm**-1
  42:       762.75 cm**-1
  43:       775.45 cm**-1
  44:       800.31 cm**-1
  45:       819.95 cm**-1
  46:       820.28 cm**-1
  47:       839.83 cm**-1
  48:       853.70 cm**-1
  49:       863.92 cm**-1
  50:       875.64 cm**-1
  51:       886.56 cm**-1
  52:       888.94 cm**-1
  53:       942.48 cm**-1
  54:       948.65 cm**-1
  55:       987.76 cm**-1
  56:       994.39 cm**-1
  57:       995.85 cm**-1
  58:       999.27 cm**-1
  59:      1010.28 cm**-1
  60:      1012.35 cm**-1
  61:      1016.53 cm**-1
  62:      1019.25 cm**-1
  63:      1116.38 cm**-1
  64:      1131.19 cm**-1
  65:      1165.54 cm**-1
  66:      1182.11 cm**-1
  67:      1189.16 cm**-1
  68:      1198.74 cm**-1
  69:      1207.53 cm**-1
  70:      1227.92 cm**-1
  71:      1235.91 cm**-1
  72:      1263.57 cm**-1
  73:      1268.21 cm**-1
  74:      1276.32 cm**-1
  75:      1282.98 cm**-1
  76:      1320.30 cm**-1
  77:      1333.76 cm**-1
  78:      1342.75 cm**-1
  79:      1369.97 cm**-1
  80:      1376.38 cm**-1
  81:      1399.57 cm**-1
  82:      1406.88 cm**-1
  83:      1413.09 cm**-1
  84:      1426.37 cm**-1
  85:      1442.12 cm**-1
  86:      1467.91 cm**-1
  87:      1504.63 cm**-1
  88:      1536.18 cm**-1
  89:      1547.23 cm**-1
  90:      1573.54 cm**-1
  91:      1621.13 cm**-1
  92:      1629.88 cm**-1
  93:      1644.70 cm**-1
  94:      1659.17 cm**-1
  95:      1669.58 cm**-1
  96:      1695.16 cm**-1
  97:      1734.40 cm**-1
  98:      3147.95 cm**-1
  99:      3172.03 cm**-1
 100:      3175.56 cm**-1
 101:      3175.75 cm**-1
 102:      3178.91 cm**-1
 103:      3183.90 cm**-1
 104:      3192.35 cm**-1
 105:      3199.46 cm**-1
 106:      3206.02 cm**-1
 107:      3215.64 cm**-1
 108:      3224.05 cm**-1
 109:      3254.07 cm**-1
 110:      3848.46 cm**-1

IR SPECTRUM
-----------

 Mode   freq       eps      Int      T**2         TX        TY        TZ
       cm**-1   L/(mol*cm) km/mol    a.u.
----------------------------------------------------------------------------
  6:     21.22   0.000013    0.06  0.000188  ( 0.004109 -0.012868  0.002340)
  7:     29.32   0.000047    0.24  0.000501  ( 0.007304 -0.014808 -0.015103)
  8:     57.51   0.001139    5.76  0.006182  ( 0.000984  0.028855 -0.073136)
  9:     65.93   0.000165    0.83  0.000782  (-0.005739 -0.027290  0.002054)
 10:     96.31   0.001768    8.93  0.005728  ( 0.023108  0.053947 -0.047787)
 11:    100.64   0.000127    0.64  0.000395  (-0.008474  0.016372  0.007443)
 12:    119.38   0.000174    0.88  0.000455  ( 0.008831 -0.017316  0.008789)
 13:    123.25   0.001830    9.25  0.004633  ( 0.002226 -0.024648  0.063404)
 14:    167.10   0.000580    2.93  0.001084  (-0.006953 -0.025614  0.019484)
 15:    212.31   0.001030    5.20  0.001514  ( 0.011259  0.027495 -0.025116)
 16:    215.54   0.000052    0.26  0.000075  ( 0.000320 -0.003977 -0.007706)
 17:    222.43   0.001243    6.28  0.001744  (-0.003792  0.006626  0.041055)
 18:    252.76   0.000123    0.62  0.000151  (-0.011596 -0.003323 -0.002409)
 19:    266.25   0.000063    0.32  0.000074  ( 0.000598 -0.005350  0.006679)
 20:    303.70   0.003888   19.65  0.003995  (-0.018577 -0.025126  0.054939)
 21:    306.93   0.000716    3.62  0.000728  (-0.017754  0.019651 -0.005173)
 22:    343.90   0.012984   65.62  0.011782  ( 0.039685  0.031506 -0.095994)
 23:    357.00   0.001455    7.35  0.001272  ( 0.004681 -0.025645  0.024341)
 24:    392.09   0.002206   11.15  0.001756  (-0.010556 -0.011419  0.038907)
 25:    421.94   0.001526    7.71  0.001129  (-0.018243  0.027644 -0.005645)
 26:    452.31   0.000365    1.85  0.000252  (-0.010575  0.011757 -0.001418)
 27:    457.02   0.001534    7.75  0.001047  (-0.025439  0.019699  0.003468)
 28:    503.41   0.000604    3.05  0.000375  ( 0.007862 -0.017582  0.001944)
 29:    523.16   0.000243    1.23  0.000145  ( 0.004845  0.010596 -0.003078)
 30:    527.40   0.000033    0.17  0.000020  ( 0.003255 -0.001291 -0.002746)
 31:    533.54   0.001586    8.02  0.000928  ( 0.009498 -0.028840 -0.002401)
 32:    561.36   0.000604    3.05  0.000336  ( 0.000898  0.003135  0.018033)
 33:    569.96   0.000287    1.45  0.000157  ( 0.002018  0.000655  0.012354)
 34:    579.19   0.001113    5.62  0.000599  (-0.008138  0.022947 -0.002584)
 35:    604.21   0.002797   14.14  0.001445  (-0.019694  0.031931 -0.006097)
 36:    632.72   0.001072    5.42  0.000529  ( 0.010517 -0.019984  0.004324)
 37:    666.19   0.000243    1.23  0.000114  ( 0.006778 -0.006782 -0.004684)
 38:    701.50   0.000049    0.25  0.000022  ( 0.004534 -0.000339  0.001124)
 39:    719.32   0.001070    5.41  0.000464  (-0.000984 -0.001448 -0.021475)
 40:    735.06   0.000378    1.91  0.000161  (-0.010505 -0.004884  0.005128)
 41:    742.01   0.000115    0.58  0.000048  ( 0.005101  0.002095  0.004253)
 42:    762.75   0.002955   14.93  0.001209  (-0.001682 -0.001807 -0.034681)
 43:    775.45   0.001727    8.73  0.000695  (-0.020148  0.016970 -0.001057)
 44:    800.31   0.008996   45.46  0.003508  (-0.045379  0.037744 -0.004884)
 45:    819.95   0.002206   11.15  0.000840  (-0.004597  0.028591  0.000992)
 46:    820.28   0.002957   14.94  0.001125  (-0.007483  0.031737 -0.007847)
 47:    839.83   0.003512   17.75  0.001305  (-0.005959  0.009790  0.034261)
 48:    853.70   0.001615    8.16  0.000590  ( 0.002594 -0.002062 -0.024067)
 49:    863.92   0.000875    4.42  0.000316  (-0.004221  0.016002 -0.006506)
 50:    875.64   0.003243   16.39  0.001156  (-0.009508  0.013011  0.029937)
 51:    886.56   0.001828    9.24  0.000643  (-0.012314  0.015579  0.015779)
 52:    888.94   0.008477   42.84  0.002976  (-0.003663  0.001121 -0.054416)
 53:    942.48   0.000558    2.82  0.000185  (-0.004306  0.005830  0.011495)
 54:    948.65   0.007275   36.76  0.002393  ( 0.023946 -0.011518 -0.041073)
 55:    987.76   0.012982   65.60  0.004101  (-0.032386  0.054609 -0.008388)
 56:    994.39   0.002118   10.70  0.000665  ( 0.009071 -0.019810  0.013785)
 57:    995.85   0.001221    6.17  0.000382  ( 0.007477 -0.014843 -0.010309)
 58:    999.27   0.001233    6.23  0.000385  (-0.012308  0.015151 -0.001987)
 59:   1010.28   0.022982  116.14  0.007099  (-0.047005  0.069457 -0.008064)
 60:   1012.35   0.001779    8.99  0.000548  (-0.002791  0.005487  0.022596)
 61:   1016.53   0.000585    2.95  0.000179  ( 0.003017 -0.003336 -0.012619)
 62:   1019.25   0.000306    1.55  0.000094  (-0.002265  0.002807 -0.008979)
 63:   1116.38   0.002083   10.53  0.000582  ( 0.006957 -0.023075  0.001214)
 64:   1131.19   0.000160    0.81  0.000044  (-0.006067  0.002558 -0.000818)
 65:   1165.54   0.001872    9.46  0.000501  ( 0.000218 -0.022013 -0.004066)
 66:   1182.11   0.000078    0.39  0.000021  ( 0.004171 -0.000394  0.001724)
 67:   1189.16   0.003041   15.37  0.000798  ( 0.019558 -0.019998  0.003963)
 68:   1198.74   0.004567   23.08  0.001189  (-0.032825  0.010502 -0.001097)
 69:   1207.53   0.018519   93.59  0.004786  (-0.056796  0.039253 -0.004389)
 70:   1227.92   0.069866  353.07  0.017756  (-0.073061  0.111097 -0.008685)
 71:   1235.91   0.049811  251.73  0.012577  ( 0.070081 -0.087177  0.008132)
 72:   1263.57   0.033813  170.88  0.008351  ( 0.045922 -0.078532  0.008635)
 73:   1268.21   0.000345    1.74  0.000085  ( 0.004481  0.007703 -0.002341)
 74:   1276.32   0.004237   21.41  0.001036  (-0.008620  0.030639 -0.004781)
 75:   1282.98   0.047308  239.07  0.011507  (-0.065242  0.084715 -0.008579)
 76:   1320.30   0.001409    7.12  0.000333  ( 0.010379 -0.014977  0.000969)
 77:   1333.76   0.005805   29.34  0.001358  ( 0.019887 -0.030907  0.002727)
 78:   1342.75   0.002291   11.58  0.000533  ( 0.022185 -0.002404  0.005881)
 79:   1369.97   0.000355    1.80  0.000081  (-0.008581 -0.002558 -0.000860)
 80:   1376.38   0.017530   88.59  0.003975  (-0.048035  0.040100 -0.007692)
 81:   1399.57   0.198498  1003.13  0.044259  ( 0.137219 -0.158029  0.021382)
 82:   1406.88   0.004266   21.56  0.000946  (-0.024241  0.018805 -0.002211)
 83:   1413.09   0.014012   70.81  0.003094  (-0.038351  0.040159 -0.003284)
 84:   1426.37   0.002314   11.69  0.000506  ( 0.001662 -0.022422  0.000854)
 85:   1442.12   0.000019    0.10  0.000004  (-0.000275 -0.002013 -0.000241)
 86:   1467.91   0.003015   15.24  0.000641  (-0.020335  0.014739 -0.003189)
 87:   1504.63   0.000535    2.70  0.000111  ( 0.004225  0.009617 -0.000742)
 88:   1536.18   0.000738    3.73  0.000150  ( 0.012164 -0.001300  0.000392)
 89:   1547.23   0.003663   18.51  0.000739  ( 0.005675 -0.026375  0.003315)
 90:   1573.54   0.004097   20.70  0.000812  ( 0.020112 -0.020135  0.001595)
 91:   1621.13   0.002090   10.56  0.000402  ( 0.003879 -0.019643  0.001163)
 92:   1629.88   0.047369  239.38  0.009069  (-0.086819  0.038692 -0.005893)
 93:   1644.70   0.020281  102.49  0.003848  ( 0.007642 -0.061441  0.003840)
 94:   1659.17   0.005379   27.18  0.001012  ( 0.017567  0.026399 -0.002479)
 95:   1669.58   0.034223  172.95  0.006397  ( 0.015940 -0.078111  0.006418)
 96:   1695.16   0.044177  223.25  0.008133  (-0.013188  0.088753 -0.009030)
 97:   1734.40   0.076200  385.09  0.013710  ( 0.059110 -0.101075  0.000493)
 98:   3147.95   0.002097   10.60  0.000208  (-0.012978 -0.001203 -0.006166)
 99:   3172.03   0.000305    1.54  0.000030  (-0.004520  0.003084 -0.000280)
100:   3175.56   0.000855    4.32  0.000084  (-0.009087  0.001049 -0.000556)
101:   3175.75   0.001867    9.43  0.000183  ( 0.013539 -0.000018  0.000371)
102:   3178.91   0.002392   12.09  0.000235  ( 0.015096 -0.002459  0.000955)
103:   3183.90   0.001511    7.63  0.000148  ( 0.006242 -0.010306  0.001702)
104:   3192.35   0.004118   20.81  0.000403  (-0.005254 -0.019269  0.001907)
105:   3199.46   0.002109   10.66  0.000206  (-0.005209 -0.013331  0.000937)
106:   3206.02   0.000936    4.73  0.000091  ( 0.009081  0.002928  0.000136)
107:   3215.64   0.002007   10.14  0.000195  (-0.013646  0.002761 -0.000974)
108:   3224.05   0.000410    2.07  0.000040  (-0.005644  0.002760 -0.000497)
109:   3254.07   0.003142   15.88  0.000301  (-0.008722  0.014909 -0.001733)
110:   3848.46   0.059474  300.56  0.004823  (-0.022919  0.064855  0.009547)

--------------------------
THERMOCHEMISTRY AT 298.15K
--------------------------

Temperature         ... 298.15 K
Pressure            ... 1.00 atm
Total Mass          ... 315.33 AMU

Throughout the following assumptions are being made:
  (1) The electronic state is orbitally nondegenerate
  (2) There are no thermally accessible electronically excited states
  (3) Hindered rotations indicated by low frequency modes are not
      treated as such but are treated as vibrations and this may
      cause some error
  (4) All equations used are the standard statistical mechanics
      equations for an ideal gas
  (5) All vibrations are strictly harmonic

freq.      21.22  E(vib)   ...       0.56
freq.      29.32  E(vib)   ...       0.55
freq.      57.51  E(vib)   ...       0.51
freq.      65.93  E(vib)   ...       0.50
freq.      96.31  E(vib)   ...       0.47
freq.     100.64  E(vib)   ...       0.46
freq.     119.38  E(vib)   ...       0.44
freq.     123.25  E(vib)   ...       0.43
freq.     167.10  E(vib)   ...       0.39
freq.     212.31  E(vib)   ...       0.34
freq.     215.54  E(vib)   ...       0.34
freq.     222.43  E(vib)   ...       0.33
freq.     252.76  E(vib)   ...       0.30
freq.     266.25  E(vib)   ...       0.29
freq.     303.70  E(vib)   ...       0.26
freq.     306.93  E(vib)   ...       0.26
freq.     343.90  E(vib)   ...       0.23
freq.     357.00  E(vib)   ...       0.22
freq.     392.09  E(vib)   ...       0.20
freq.     421.94  E(vib)   ...       0.18
freq.     452.31  E(vib)   ...       0.16
freq.     457.02  E(vib)   ...       0.16
freq.     503.41  E(vib)   ...       0.14
freq.     523.16  E(vib)   ...       0.13
freq.     527.40  E(vib)   ...       0.13
freq.     533.54  E(vib)   ...       0.13
freq.     561.36  E(vib)   ...       0.11
freq.     569.96  E(vib)   ...       0.11
freq.     579.19  E(vib)   ...       0.11
freq.     604.21  E(vib)   ...       0.10
freq.     632.72  E(vib)   ...       0.09
freq.     666.19  E(vib)   ...       0.08
freq.     701.50  E(vib)   ...       0.07
freq.     719.32  E(vib)   ...       0.07
freq.     735.06  E(vib)   ...       0.06
freq.     742.01  E(vib)   ...       0.06
freq.     762.75  E(vib)   ...       0.06
freq.     775.45  E(vib)   ...       0.05
freq.     800.31  E(vib)   ...       0.05
freq.     819.95  E(vib)   ...       0.05
freq.     820.28  E(vib)   ...       0.05
freq.     839.83  E(vib)   ...       0.04
freq.     853.70  E(vib)   ...       0.04
freq.     863.92  E(vib)   ...       0.04
freq.     875.64  E(vib)   ...       0.04
freq.     886.56  E(vib)   ...       0.04
freq.     888.94  E(vib)   ...       0.04
freq.     942.48  E(vib)   ...       0.03
freq.     948.65  E(vib)   ...       0.03
freq.     987.76  E(vib)   ...       0.02
freq.     994.39  E(vib)   ...       0.02
freq.     995.85  E(vib)   ...       0.02
freq.     999.27  E(vib)   ...       0.02
freq.    1010.28  E(vib)   ...       0.02
freq.    1012.35  E(vib)   ...       0.02
freq.    1016.53  E(vib)   ...       0.02
freq.    1019.25  E(vib)   ...       0.02
freq.    1116.38  E(vib)   ...       0.01
freq.    1131.19  E(vib)   ...       0.01
freq.    1165.54  E(vib)   ...       0.01
freq.    1182.11  E(vib)   ...       0.01
freq.    1189.16  E(vib)   ...       0.01
freq.    1198.74  E(vib)   ...       0.01
freq.    1207.53  E(vib)   ...       0.01
freq.    1227.92  E(vib)   ...       0.01
freq.    1235.91  E(vib)   ...       0.01
freq.    1263.57  E(vib)   ...       0.01
freq.    1268.21  E(vib)   ...       0.01
freq.    1276.32  E(vib)   ...       0.01
freq.    1282.98  E(vib)   ...       0.01
freq.    1320.30  E(vib)   ...       0.01
freq.    1333.76  E(vib)   ...       0.01
freq.    1342.75  E(vib)   ...       0.01
freq.    1369.97  E(vib)   ...       0.01
freq.    1376.38  E(vib)   ...       0.01
freq.    1399.57  E(vib)   ...       0.00
freq.    1406.88  E(vib)   ...       0.00
freq.    1413.09  E(vib)   ...       0.00
freq.    1426.37  E(vib)   ...       0.00
freq.    1442.12  E(vib)   ...       0.00
freq.    1467.91  E(vib)   ...       0.00
freq.    1504.63  E(vib)   ...       0.00
freq.    1536.18  E(vib)   ...       0.00
freq.    1547.23  E(vib)   ...       0.00
freq.    1573.54  E(vib)   ...       0.00
freq.    1621.13  E(vib)   ...       0.00
freq.    1629.88  E(vib)   ...       0.00
freq.    1644.70  E(vib)   ...       0.00
freq.    1659.17  E(vib)   ...       0.00
freq.    1669.58  E(vib)   ...       0.00
freq.    1695.16  E(vib)   ...       0.00
freq.    1734.40  E(vib)   ...       0.00
freq.    3147.95  E(vib)   ...       0.00
freq.    3172.03  E(vib)   ...       0.00
freq.    3175.56  E(vib)   ...       0.00
freq.    3175.75  E(vib)   ...       0.00
freq.    3178.91  E(vib)   ...       0.00
freq.    3183.90  E(vib)   ...       0.00
freq.    3192.35  E(vib)   ...       0.00
freq.    3199.46  E(vib)   ...       0.00
freq.    3206.02  E(vib)   ...       0.00
freq.    3215.64  E(vib)   ...       0.00
freq.    3224.05  E(vib)   ...       0.00
freq.    3254.07  E(vib)   ...       0.00
freq.    3848.46  E(vib)   ...       0.00

------------
INNER ENERGY
------------

The inner energy is: U= E(el) + E(ZPE) + E(vib) + E(rot) + E(trans)
    E(el)   - is the total energy from the electronic structure calculation
              = E(kin-el) + E(nuc-el) + E(el-el) + E(nuc-nuc)
    E(ZPE)  - the the zero temperature vibrational energy from the frequency calculation
    E(vib)  - the the finite temperature correction to E(ZPE) due to population
              of excited vibrational states
    E(rot)  - is the rotational thermal energy
    E(trans)- is the translational thermal energy

Summary of contributions to the inner energy U:
Electronic energy                ...  -1048.92606534 Eh
Zero point energy                ...      0.28188321 Eh     176.88 kcal/mol
Thermal vibrational correction   ...      0.01578819 Eh       9.91 kcal/mol
Thermal rotational correction    ...      0.00141627 Eh       0.89 kcal/mol
Thermal translational correction ...      0.00141627 Eh       0.89 kcal/mol
-----------------------------------------------------------------------
Total thermal energy                  -1048.62556140 Eh

Summary of corrections to the electronic energy:
(perhaps to be used in another calculation)
Total thermal correction                  0.01862073 Eh      11.68 kcal/mol
Non-thermal (ZPE) correction              0.28188321 Eh     176.88 kcal/mol
-----------------------------------------------------------------------
Total correction                          0.30050394 Eh     188.57 kcal/mol

--------
ENTHALPY
--------

The enthalpy is H = U + kB*T
                kB is Boltzmann's constant
Total free energy                 ...  -1048.62556140 Eh

Rotational constants in cm-1:     0.024869     0.003311     0.002926

                             ****ORCA TERMINATED NORMALLY****
TOTAL RUN TIME: 0 days 0 hours 48 minutes 8 seconds 569 msec
