 Gaussian 16, Revision C.01,
 Gaussian 16:  ES64L-G16RevC.01  3-Jul-2019

 --------------------------
 #P mp2/cc-pvdz polar=Cubic
 --------------------------

 -
 p
 -
 Symbolic Z-matrix:
 Charge =  0 Multiplicity = 1

                         Standard orientation:
 ---------------------------------------------------------------------
 Center     Atomic      Atomic             Coordinates (Angstroms)
 Number     Number       Type             X           Y           Z
 ---------------------------------------------------------------------
      1          6           0       -2.867235    0.506059    0.020748
      2          6           0       -2.791440    1.917173    0.022960
      3          6           0       -1.581709    2.585268   -0.015141
      4          6           0       -0.364996    1.872575   -0.059826
      5          6           0        0.899557    2.542156   -0.089303
      6          6           0        2.073791    1.844929   -0.132463
      7          6           0        2.100566    0.408974   -0.159895
      8          6           0        3.322949   -0.331899   -0.212705
      9          6           0        3.247125   -1.741351   -0.222540
     10          6           0        2.035644   -2.414358   -0.164549
     11          6           0        0.817111   -1.711920   -0.113800
     12          6           0       -0.447622   -2.380307   -0.071177
     13          6           0       -1.624334   -1.687959   -0.029602
     14          6           0       -1.652024   -0.250502   -0.024388
     15          6           0       -0.392610    0.443297   -0.067558
     16          6           0        0.843738   -0.284173   -0.115898
     17          6           0       -4.160458   -0.161088    0.065494
     18          6           0        4.619481    0.347155   -0.266682
     19          6           0       -5.377685    0.416554    0.081748
     20          6           0        5.792672   -0.183848    0.135704
     21          8           0        6.952862    0.489215    0.006349
     22          6           0        8.099088   -0.094895    0.595840
     23          7           0       -6.577557   -0.402590    0.129728
     24          8           0       -7.639708    0.209815    0.135790
     25          8           0       -6.475037   -1.622989    0.160774
     26          1           0       -3.712802    2.501522    0.059815
     27          1           0       -1.558847    3.678143   -0.008786
     28          1           0        0.910769    3.635311   -0.070677
     29          1           0        3.013492    2.397418   -0.136987
     30          1           0        4.167640   -2.322464   -0.311053
     31          1           0        2.018991   -3.507768   -0.180143
     32          1           0       -0.459266   -3.473896   -0.072992
     33          1           0       -2.557784   -2.248951    0.000253
     34          1           0       -4.191161   -1.251576    0.089677
     35          1           0        4.666512    1.367214   -0.654809
     36          1           0       -5.619514    1.476926    0.060323
     37          1           0        5.864185   -1.179709    0.592747
     38          1           0        8.952290    0.551936    0.351271
     39          1           0        8.002433   -0.159011    1.694920
     40          1           0        8.291366   -1.106324    0.193222
 ---------------------------------------------------------------------

 SCF Done:  E(RHF) =  -1082.95100251     A.U. after   18 cycles
 E2 =    -0.3460957715D+01 EUMP2 =    -0.10864119602270D+04
 E2 =    -0.3460957715D+01 EUMP2 =    -0.10864119602270D+04
 SCF Done:  E(RHF) =  -1082.94974666     A.U. after   11 cycles
 E2 =    -0.3461285321D+01 EUMP2 =    -0.10864110319785D+04
 E2 =    -0.3461285321D+01 EUMP2 =    -0.10864110319785D+04
 SCF Done:  E(RHF) =  -1082.95232119     A.U. after   11 cycles
 E2 =    -0.3460628758D+01 EUMP2 =    -0.10864129499431D+04
 E2 =    -0.3460628758D+01 EUMP2 =    -0.10864129499431D+04
 SCF Done:  E(RHF) =  -1082.95093651     A.U. after   11 cycles
 E2 =    -0.3460943219D+01 EUMP2 =    -0.10864118797276D+04
 E2 =    -0.3460943219D+01 EUMP2 =    -0.10864118797276D+04
 SCF Done:  E(RHF) =  -1082.95109706     A.U. after   11 cycles
 E2 =    -0.3460972961D+01 EUMP2 =    -0.10864120700211D+04
 E2 =    -0.3460972961D+01 EUMP2 =    -0.10864120700211D+04
 SCF Done:  E(RHF) =  -1082.95091166     A.U. after    9 cycles
 E2 =    -0.3460964208D+01 EUMP2 =    -0.10864118758680D+04
 E2 =    -0.3460964208D+01 EUMP2 =    -0.10864118758680D+04
 SCF Done:  E(RHF) =  -1082.95110334     A.U. after    9 cycles
 E2 =    -0.3460951113D+01 EUMP2 =    -0.10864120544564D+04
 E2 =    -0.3460951113D+01 EUMP2 =    -0.10864120544564D+04

 Alpha  occ. eigenvalues --  -20.60113 -20.58364 -20.58019 -15.83448 -11.32088
 Alpha  occ. eigenvalues --  -11.30977 -11.29499 -11.29336 -11.28130 -11.27533
 Alpha  occ. eigenvalues --  -11.27299 -11.27224 -11.26803 -11.26772 -11.26711
 Alpha  occ. eigenvalues --  -11.26502 -11.26385 -11.26234 -11.26166 -11.25991
 Alpha  occ. eigenvalues --  -11.25703 -11.25669 -11.25634 -11.25472 -11.24269
 Alpha  occ. eigenvalues --   -1.59062  -1.43097  -1.38279  -1.21486  -1.17254
 Alpha  occ. eigenvalues --   -1.14102  -1.13203  -1.09922  -1.07488  -1.04871
 Alpha  occ. eigenvalues --   -1.03216  -1.01154  -0.99873  -0.95340  -0.93449
 Alpha  occ. eigenvalues --   -0.87755  -0.86986  -0.86181  -0.84248  -0.80697
 Alpha  occ. eigenvalues --   -0.79904  -0.76246  -0.74366  -0.72738  -0.72494
 Alpha  occ. eigenvalues --   -0.71102  -0.70676  -0.70098  -0.69567  -0.68036
 Alpha  occ. eigenvalues --   -0.66566  -0.66364  -0.64149  -0.63309  -0.62412
 Alpha  occ. eigenvalues --   -0.61222  -0.59906  -0.58664  -0.57646  -0.57431
 Alpha  occ. eigenvalues --   -0.57051  -0.56702  -0.55674  -0.54336  -0.52659
 Alpha  occ. eigenvalues --   -0.52399  -0.51314  -0.50782  -0.49173  -0.48135
 Alpha  occ. eigenvalues --   -0.47853  -0.47530  -0.47090  -0.45173  -0.43376
 Alpha  occ. eigenvalues --   -0.40582  -0.38756  -0.35711  -0.33203  -0.31099
 Alpha  occ. eigenvalues --   -0.25673
 Alpha virt. eigenvalues --    0.01480   0.06904   0.08121   0.11685   0.13399
 Alpha virt. eigenvalues --    0.16924   0.17097   0.17757   0.18124   0.18793
 Alpha virt. eigenvalues --    0.19117   0.20070   0.21013   0.21538   0.23761

 Mulliken charges:
               1
     1  C   -0.040163
     2  C   -0.005671
     3  C    0.058390
     4  C   -0.078509
     5  C    0.063740
     6  C   -0.002201
     7  C   -0.030982
     8  C   -0.049020
     9  C    0.012970
    10  C    0.030375
    11  C   -0.056527
    12  C    0.050683
    13  C    0.000946
    14  C   -0.037827
    15  C    0.012519
    16  C   -0.006554
    17  C    0.004486
    18  C   -0.079956
    19  C    0.107409
    20  C    0.164687
    21  O   -0.290438
    22  C    0.080881
    23  N    0.183418
    24  O   -0.228318
    25  O   -0.231143
    26  H    0.011440
    27  H    0.009350
    28  H    0.006155
    29  H    0.014680
    30  H    0.006527
    31  H    0.004182
    32  H    0.005306
    33  H    0.020840
    34  H    0.048701
    35  H    0.030671
    36  H    0.043103
    37  H    0.018033
    38  H    0.063918
    39  H    0.044513
    40  H    0.039388
 Sum of Mulliken charges =  -0.00000

 Dipole moment (field-independent basis, Debye):
    X=              7.3122    Y=              0.7250    Z=              0.7555  Tot=              7.3868
 Quadrupole moment (field-independent basis, Debye-Ang):
   XX=           -152.1083   YY=           -132.1724   ZZ=           -150.6335
   XY=            -16.6579   XZ=              7.2660   YZ=             -0.3143

  Exact polarizability:     553.003     -23.546     263.567       0.071      -1.322      88.738
 Approx polarizability:     401.877     -33.331     278.935      -3.275      -1.638     109.955

 1\1\GINC-N1532\SP\RMP2-FC\CC-pVDZ\C21H15N1O3\KA_PR7831\16-Aug-2025\0\\
 #P mp2/cc-pvdz polar=Cubic\\p\\0,1\C,0,-7.1141541,3.3234504,-0.2602295
 \C,0,-5.8477331,3.9491319,-0.21908\C,0,-4.6741915,3.2221117,-0.1449505
 \C,0,-4.7000768,1.8120201,-0.1090151\C,0,-3.4990559,1.0385484,-0.02188
 28\C,0,-3.5322402,-0.3269286,0.0125436\C,0,-4.7688619,-1.0554614,-0.04
 61342\C,0,-4.8160596,-2.4847653,-0.0185002\C,0,-6.0805938,-3.1100503,-
 0.0672103\C,0,-7.2604482,-2.3827579,-0.1217727\C,0,-7.2447463,-0.97575
 62,-0.1520489\C,0,-8.4455939,-0.2007777,-0.226068\C,0,-8.4177748,1.164

 Normal termination of Gaussian 16 at Sat Aug 16 14:58:41 2025.
