 Gaussian 16, Revision C.01,
 Gaussian 16:  ES64L-G16RevC.01  3-Jul-2019

 ----------------------
 #P b3lyp/cc-pvdz polar
 ----------------------

 --
 p1
 --
 Symbolic Z-matrix:
 Charge =  0 Multiplicity = 1

                         Standard orientation:
 ---------------------------------------------------------------------
 Center     Atomic      Atomic             Coordinates (Angstroms)
 Number     Number       Type             X           Y           Z
 ---------------------------------------------------------------------
      1          6           0        3.186529    0.523838    0.027045
      2          6           0        3.072340    1.932403    0.065572
      3          6           0        1.845028    2.567512    0.060567
      4          6           0        0.646930    1.822125    0.013312
      5          6           0       -0.635032    2.456289    0.020043
      6          6           0       -1.790342    1.726656   -0.028861
      7          6           0       -1.781695    0.293348   -0.098892
      8          6           0       -2.989228   -0.477834   -0.164426
      9          6           0       -2.867458   -1.886534   -0.203118
     10          6           0       -1.638227   -2.524829   -0.168042
     11          6           0       -0.437333   -1.790936   -0.115011
     12          6           0        0.843977   -2.424434   -0.102767
     13          6           0        2.003208   -1.701489   -0.059673
     14          6           0        1.991362   -0.265400   -0.021439
     15          6           0        0.712227    0.394544   -0.031784
     16          6           0       -0.505170   -0.365007   -0.083889
     17          6           0        4.496179   -0.108100    0.038012
     18          6           0       -4.300526    0.162648   -0.204065
     19          6           0        5.700123    0.498002    0.074862
     20          6           0       -5.468185   -0.448115    0.149918
     21          7           0       -6.734034    0.060314    0.038092
     22          6           0       -7.811491   -0.515310    0.819645
     23          6           0       -6.938417    1.389263   -0.496129
     24          7           0        6.918168   -0.292355    0.081096
     25          8           0        7.966578    0.343773    0.112615
     26          8           0        6.846035   -1.515511    0.055479
     27          1           0        3.978330    2.540458    0.102904
     28          1           0        1.792118    3.658870    0.094819
     29          1           0       -0.676120    3.547662    0.073481
     30          1           0       -2.743987    2.254217   -0.000398
     31          1           0       -3.769090   -2.494981   -0.300353
     32          1           0       -1.591443   -3.616956   -0.207426
     33          1           0        0.885147   -3.517115   -0.129538
     34          1           0        2.951737   -2.237452   -0.053129
     35          1           0        4.554204   -1.197495    0.014611
     36          1           0       -4.339547    1.201062   -0.533094
     37          1           0        5.916125    1.563767    0.101827
     38          1           0       -5.443816   -1.457234    0.573733
     39          1           0       -7.594477   -1.572200    1.034085
     40          1           0       -7.961841    0.003087    1.788376
     41          1           0       -8.760235   -0.468217    0.259999
     42          1           0       -8.007584    1.542376   -0.703451
     43          1           0       -6.604051    2.185653    0.199732
     44          1           0       -6.384103    1.510851   -1.440521
 ---------------------------------------------------------------------

 SCF Done:  E(RB3LYP) =  -1109.11430058     A.U. after   16 cycles

 The electronic state is 1-A.
 Alpha  occ. eigenvalues --  -19.14634 -19.14599 -14.54019 -14.37657 -10.24321
 Alpha  occ. eigenvalues --  -10.23945 -10.23896 -10.23006 -10.21937 -10.21534
 Alpha  occ. eigenvalues --  -10.21322 -10.21280 -10.21015 -10.20859 -10.20586
 Alpha  occ. eigenvalues --  -10.20520 -10.20372 -10.20175 -10.20072 -10.20032
 Alpha  occ. eigenvalues --  -10.19970 -10.19927 -10.19902 -10.19641 -10.19552
 Alpha  occ. eigenvalues --  -10.18611  -1.20886  -1.03365  -0.97333  -0.90080
 Alpha  occ. eigenvalues --   -0.86666  -0.84191  -0.83370  -0.80895  -0.78974
 Alpha  occ. eigenvalues --   -0.77004  -0.75537  -0.74671  -0.73959  -0.73108
 Alpha  occ. eigenvalues --   -0.69136  -0.67410  -0.63999  -0.62888  -0.62617
 Alpha  occ. eigenvalues --   -0.60945  -0.57841  -0.56985  -0.54398  -0.53479
 Alpha  occ. eigenvalues --   -0.53217  -0.52408  -0.51690  -0.51399  -0.50761
 Alpha  occ. eigenvalues --   -0.50239  -0.48647  -0.48546  -0.47737  -0.46824
 Alpha  occ. eigenvalues --   -0.45304  -0.44595  -0.44006  -0.42893  -0.42229
 Alpha  occ. eigenvalues --   -0.42123  -0.41647  -0.41542  -0.40635  -0.40517
 Alpha  occ. eigenvalues --   -0.40322  -0.39798  -0.38649  -0.38126  -0.37908
 Alpha  occ. eigenvalues --   -0.35872  -0.35299  -0.34201  -0.33738  -0.32550
 Alpha  occ. eigenvalues --   -0.31878  -0.29779  -0.28828  -0.28800  -0.27578
 Alpha  occ. eigenvalues --   -0.26957  -0.26306  -0.24192  -0.22554  -0.18581
 Alpha virt. eigenvalues --   -0.09408  -0.05536  -0.03856  -0.01937  -0.00617
 Alpha virt. eigenvalues --    0.02464   0.02975   0.03676   0.05117   0.06195
 Alpha virt. eigenvalues --    0.06507   0.07472   0.08094   0.08337   0.08708

 Mulliken charges:
               1
     1  C    0.010592
     2  C    0.012265
     3  C    0.031228
     4  C    0.021763
     5  C    0.041370
     6  C   -0.005626
     7  C    0.006886
     8  C    0.037337
     9  C   -0.001379
    10  C    0.031228
    11  C    0.016669
    12  C    0.048527
    13  C   -0.025969
    14  C    0.032673
    15  C    0.069914
    16  C    0.070341
    17  C    0.064352
    18  C   -0.102617
    19  C    0.097686
    20  C    0.152889
    21  N   -0.249036
    22  C    0.069471
    23  C    0.080480
    24  N    0.214981
    25  O   -0.262374
    26  O   -0.265077
    27  H   -0.037236
    28  H   -0.046955
    29  H   -0.050679
    30  H   -0.045384
    31  H   -0.046903
    32  H   -0.047216
    33  H   -0.046617
    34  H   -0.034188
    35  H    0.000596
    36  H   -0.029915
    37  H   -0.007905
    38  H   -0.001720
    39  H    0.035725
    40  H    0.029657
    41  H    0.031603
    42  H    0.026905
    43  H    0.025296
    44  H    0.046359
 Sum of Mulliken charges =  -0.00000

 Dipole moment (field-independent basis, Debye):
    X=            -12.1629    Y=              1.6599    Z=              0.2899  Tot=             12.2791
 Quadrupole moment (field-independent basis, Debye-Ang):
   XX=           -160.3260   YY=           -136.6559   ZZ=           -155.2207
   XY=              8.2362   XZ=             -3.2299   YZ=             -1.1950

  Exact polarizability:     752.897      24.008     287.166      -2.344       1.255     102.424
 Approx polarizability:    1211.525      85.153     560.424       5.279       5.945     168.903

 Normal termination of Gaussian 16 at Thu Aug  7 17:46:33 2025.
