 Gaussian 16, Revision C.01,
 Gaussian 16:  ES64L-G16RevC.01  3-Jul-2019

 --------------------
 #P bmk/cc-pvdz polar
 --------------------

 -
 p
 -
 Symbolic Z-matrix:
 Charge =  0 Multiplicity = 1

                         Standard orientation:
 ---------------------------------------------------------------------
 Center     Atomic      Atomic             Coordinates (Angstroms)
 Number     Number       Type             X           Y           Z
 ---------------------------------------------------------------------
      1          6           0        3.186529    0.523838    0.027045
      2          6           0        3.072340    1.932403    0.065572
      3          6           0        1.845028    2.567512    0.060567
      4          6           0        0.646930    1.822125    0.013312
      5          6           0       -0.635032    2.456289    0.020043
      6          6           0       -1.790342    1.726656   -0.028861
      7          6           0       -1.781695    0.293348   -0.098892
      8          6           0       -2.989228   -0.477834   -0.164426
      9          6           0       -2.867458   -1.886534   -0.203118
     10          6           0       -1.638227   -2.524829   -0.168042
     11          6           0       -0.437333   -1.790936   -0.115011
     12          6           0        0.843977   -2.424434   -0.102767
     13          6           0        2.003208   -1.701489   -0.059673
     14          6           0        1.991362   -0.265400   -0.021439
     15          6           0        0.712227    0.394544   -0.031784
     16          6           0       -0.505170   -0.365007   -0.083889
     17          6           0        4.496179   -0.108100    0.038012
     18          6           0       -4.300526    0.162648   -0.204065
     19          6           0        5.700123    0.498002    0.074862
     20          6           0       -5.468185   -0.448115    0.149918
     21          7           0       -6.734034    0.060314    0.038092
     22          6           0       -7.811491   -0.515310    0.819645
     23          6           0       -6.938417    1.389263   -0.496129
     24          7           0        6.918168   -0.292355    0.081096
     25          8           0        7.966578    0.343773    0.112615
     26          8           0        6.846035   -1.515511    0.055479
     27          1           0        3.978330    2.540458    0.102904
     28          1           0        1.792118    3.658870    0.094819
     29          1           0       -0.676120    3.547662    0.073481
     30          1           0       -2.743987    2.254217   -0.000398
     31          1           0       -3.769090   -2.494981   -0.300353
     32          1           0       -1.591443   -3.616956   -0.207426
     33          1           0        0.885147   -3.517115   -0.129538
     34          1           0        2.951737   -2.237452   -0.053129
     35          1           0        4.554204   -1.197495    0.014611
     36          1           0       -4.339547    1.201062   -0.533094
     37          1           0        5.916125    1.563767    0.101827
     38          1           0       -5.443816   -1.457234    0.573733
     39          1           0       -7.594477   -1.572200    1.034085
     40          1           0       -7.961841    0.003087    1.788376
     41          1           0       -8.760235   -0.468217    0.259999
     42          1           0       -8.007584    1.542376   -0.703451
     43          1           0       -6.604051    2.185653    0.199732
     44          1           0       -6.384103    1.510851   -1.440521
 ---------------------------------------------------------------------

 SCF Done:  E(RBMK) =  -1108.38759196     A.U. after   17 cycles

 The electronic state is 1-A.
 Alpha  occ. eigenvalues --  -19.55178 -19.55064 -14.90048 -14.71112 -10.53562
 Alpha  occ. eigenvalues --  -10.53166 -10.52863 -10.52743 -10.51691 -10.50933
 Alpha  occ. eigenvalues --  -10.50697 -10.50622 -10.50376 -10.50159 -10.49866
 Alpha  occ. eigenvalues --  -10.49797 -10.49743 -10.49457 -10.49407 -10.49332
 Alpha  occ. eigenvalues --  -10.49269 -10.49260 -10.49167 -10.48964 -10.48775
 Alpha  occ. eigenvalues --  -10.47691  -1.30226  -1.11942  -1.04925  -0.97614
 Alpha  occ. eigenvalues --   -0.94021  -0.91430  -0.90637  -0.87927  -0.85732
 Alpha  occ. eigenvalues --   -0.83660  -0.82124  -0.80916  -0.80344  -0.79520
 Alpha  occ. eigenvalues --   -0.75425  -0.73362  -0.69810  -0.68648  -0.68367
 Alpha  occ. eigenvalues --   -0.66588  -0.63312  -0.62915  -0.59943  -0.59082
 Alpha  occ. eigenvalues --   -0.58333  -0.57526  -0.57518  -0.56751  -0.55833
 Alpha  occ. eigenvalues --   -0.55324  -0.53721  -0.53416  -0.52821  -0.51360
 Alpha  occ. eigenvalues --   -0.49943  -0.49113  -0.48312  -0.47168  -0.47099
 Alpha  occ. eigenvalues --   -0.46375  -0.45912  -0.45671  -0.44783  -0.44688
 Alpha  occ. eigenvalues --   -0.44256  -0.43898  -0.42892  -0.42365  -0.41955
 Alpha  occ. eigenvalues --   -0.39811  -0.39536  -0.38306  -0.37252  -0.35980
 Alpha  occ. eigenvalues --   -0.35770  -0.33969  -0.33525  -0.33218  -0.32401
 Alpha  occ. eigenvalues --   -0.30986  -0.29615  -0.27057  -0.25302  -0.20726
 Alpha virt. eigenvalues --   -0.07415  -0.03034  -0.01364   0.00948   0.02443
 Alpha virt. eigenvalues --    0.05835   0.06519   0.08856   0.10022   0.11024
 Alpha virt. eigenvalues --    0.11451   0.11816   0.12916   0.13565   0.13813

 Mulliken charges:
               1
     1  C    0.018318
     2  C   -0.039048
     3  C   -0.026094
     4  C    0.037092
     5  C   -0.005631
     6  C   -0.049697
     7  C    0.006037
     8  C    0.053505
     9  C   -0.057539
    10  C   -0.023247
    11  C    0.028471
    12  C    0.005263
    13  C   -0.072338
    14  C    0.036272
    15  C    0.042990
    16  C    0.046398
    17  C    0.046371
    18  C   -0.126096
    19  C    0.033178
    20  C    0.128627
    21  N   -0.292923
    22  C   -0.014085
    23  C   -0.004844
    24  N    0.232536
    25  O   -0.273640
    26  O   -0.278041
    27  H    0.009871
    28  H    0.004926
    29  H    0.001015
    30  H    0.003962
    31  H   -0.000996
    32  H    0.004439
    33  H    0.005305
    34  H    0.015981
    35  H    0.042727
    36  H   -0.004343
    37  H    0.042290
    38  H    0.032310
    39  H    0.067822
    40  H    0.063075
    41  H    0.063457
    42  H    0.062036
    43  H    0.057339
    44  H    0.076946
 Sum of Mulliken charges =  -0.00000

 Dipole moment (field-independent basis, Debye):
    X=            -12.1307    Y=              1.7261    Z=              0.3463  Tot=             12.2578
 Quadrupole moment (field-independent basis, Debye-Ang):
   XX=           -159.4162   YY=           -134.6226   ZZ=           -156.4548
   XY=              8.8173   XZ=             -3.6089   YZ=             -1.2424

  Exact polarizability:     703.274      26.913     281.775      -1.952       1.257     101.482
 Approx polarizability:     845.118      61.378     453.206       3.697       4.241     150.593

 Normal termination of Gaussian 16 at Fri Aug 15 16:20:15 2025.
