 Gaussian 16, Revision C.01,
 Gaussian 16:  ES64L-G16RevC.01  3-Jul-2019

 ----------------------
 #P b3lyp/cc-pvdz polar
 ----------------------

 -
 p
 -
 Symbolic Z-matrix:
 Charge =  0 Multiplicity = 1

                         Standard orientation:
 ---------------------------------------------------------------------
 Center     Atomic      Atomic             Coordinates (Angstroms)
 Number     Number       Type             X           Y           Z
 ---------------------------------------------------------------------
      1          6           0       -2.867235    0.506059    0.020748
      2          6           0       -2.791440    1.917173    0.022960
      3          6           0       -1.581709    2.585268   -0.015141
      4          6           0       -0.364996    1.872575   -0.059826
      5          6           0        0.899557    2.542156   -0.089303
      6          6           0        2.073791    1.844929   -0.132463
      7          6           0        2.100566    0.408974   -0.159895
      8          6           0        3.322949   -0.331899   -0.212705
      9          6           0        3.247125   -1.741351   -0.222540
     10          6           0        2.035644   -2.414358   -0.164549
     11          6           0        0.817111   -1.711920   -0.113800
     12          6           0       -0.447622   -2.380307   -0.071177
     13          6           0       -1.624334   -1.687959   -0.029602
     14          6           0       -1.652024   -0.250502   -0.024388
     15          6           0       -0.392610    0.443297   -0.067558
     16          6           0        0.843738   -0.284173   -0.115898
     17          6           0       -4.160458   -0.161088    0.065494
     18          6           0        4.619481    0.347155   -0.266682
     19          6           0       -5.377685    0.416554    0.081748
     20          6           0        5.792672   -0.183848    0.135704
     21          8           0        6.952862    0.489215    0.006349
     22          6           0        8.099088   -0.094895    0.595840
     23          7           0       -6.577557   -0.402590    0.129728
     24          8           0       -7.639708    0.209815    0.135790
     25          8           0       -6.475037   -1.622989    0.160774
     26          1           0       -3.712802    2.501522    0.059815
     27          1           0       -1.558847    3.678143   -0.008786
     28          1           0        0.910769    3.635311   -0.070677
     29          1           0        3.013492    2.397418   -0.136987
     30          1           0        4.167640   -2.322464   -0.311053
     31          1           0        2.018991   -3.507768   -0.180143
     32          1           0       -0.459266   -3.473896   -0.072992
     33          1           0       -2.557784   -2.248951    0.000253
     34          1           0       -4.191161   -1.251576    0.089677
     35          1           0        4.666512    1.367214   -0.654809
     36          1           0       -5.619514    1.476926    0.060323
     37          1           0        5.864185   -1.179709    0.592747
     38          1           0        8.952290    0.551936    0.351271
     39          1           0        8.002433   -0.159011    1.694920
     40          1           0        8.291366   -1.106324    0.193222
 ---------------------------------------------------------------------

 SCF Done:  E(RB3LYP) =  -1089.66229557     A.U. after   16 cycles

 The electronic state is 1-A.
 Alpha  occ. eigenvalues --  -19.19102 -19.15160 -19.15120 -14.54536 -10.26142
 Alpha  occ. eigenvalues --  -10.26093 -10.23580 -10.22484 -10.22114 -10.21965
 Alpha  occ. eigenvalues --  -10.21928 -10.21557 -10.21427 -10.21274 -10.21201
 Alpha  occ. eigenvalues --  -10.20918 -10.20838 -10.20672 -10.20631 -10.20570
 Alpha  occ. eigenvalues --  -10.20518 -10.20466 -10.20335 -10.20313 -10.19530
 Alpha  occ. eigenvalues --   -1.21424  -1.09063  -1.03918  -0.90718  -0.87337
 Alpha  occ. eigenvalues --   -0.84776  -0.84029  -0.81584  -0.79797  -0.77845
 Alpha  occ. eigenvalues --   -0.76137  -0.74854  -0.73892  -0.70492  -0.68732
 Alpha  occ. eigenvalues --   -0.64718  -0.63984  -0.63290  -0.61930  -0.59357
 Alpha  occ. eigenvalues --   -0.57640  -0.55073  -0.54157  -0.53913  -0.53069
 Alpha  occ. eigenvalues --   -0.52139  -0.51913  -0.51382  -0.50763  -0.48966
 Alpha  occ. eigenvalues --   -0.48375  -0.48146  -0.46807  -0.45859  -0.45175
 Alpha  occ. eigenvalues --   -0.44400  -0.43163  -0.42702  -0.42117  -0.41266
 Alpha  occ. eigenvalues --   -0.41086  -0.40525  -0.39889  -0.38769  -0.38568
 Alpha  occ. eigenvalues --   -0.36914  -0.36836  -0.35866  -0.35197  -0.34345
 Alpha  occ. eigenvalues --   -0.33491  -0.33115  -0.30353  -0.29329  -0.29281
 Alpha  occ. eigenvalues --   -0.28696  -0.27468  -0.26940  -0.24906  -0.23953
 Alpha  occ. eigenvalues --   -0.19969
 Alpha virt. eigenvalues --   -0.09980  -0.06180  -0.04517  -0.02520  -0.01307
 Alpha virt. eigenvalues --    0.01785   0.02368   0.04753   0.05684   0.05982
 Alpha virt. eigenvalues --    0.06631   0.07157   0.07676   0.08591   0.09273

 Mulliken charges:
               1
     1  C    0.011592
     2  C    0.012990
     3  C    0.033291
     4  C    0.020693
     5  C    0.043897
     6  C   -0.005173
     7  C    0.017964
     8  C    0.025334
     9  C    0.007729
    10  C    0.030094
    11  C    0.019115
    12  C    0.048793
    13  C   -0.022295
    14  C    0.032207
    15  C    0.072881
    16  C    0.068618
    17  C    0.064065
    18  C   -0.052008
    19  C    0.100204
    20  C    0.156803
    21  O   -0.243864
    22  C    0.115197
    23  N    0.215140
    24  O   -0.258864
    25  O   -0.262579
    26  H   -0.035238
    27  H   -0.043873
    28  H   -0.046377
    29  H   -0.036896
    30  H   -0.044643
    31  H   -0.044149
    32  H   -0.044058
    33  H   -0.031906
    34  H    0.001704
    35  H   -0.009865
    36  H   -0.005768
    37  H   -0.011178
    38  H    0.042606
    39  H    0.030265
    40  H    0.027555
 Sum of Mulliken charges =  -0.00000

 Dipole moment (field-independent basis, Debye):
    X=              9.5633    Y=              0.7286    Z=              0.6280  Tot=              9.6116
 Quadrupole moment (field-independent basis, Debye-Ang):
   XX=           -157.8787   YY=           -130.0693   ZZ=           -147.4920
   XY=            -16.8895   XZ=              7.3839   YZ=             -0.2798

  Exact polarizability:     661.731     -29.413     270.168       0.869      -1.470      90.157
 Approx polarizability:    1078.678     -81.801     532.639      -9.234      -2.960     150.608

 Normal termination of Gaussian 16 at Fri Aug 15 18:36:54 2025.
