 Gaussian 16, Revision C.01,
 Gaussian 16:  ES64L-G16RevC.01  3-Jul-2019

 ----------------------
 #P b3lyp/cc-pvdz polar
 ----------------------

 --
 p3
 --
 Symbolic Z-matrix:
 Charge =  0 Multiplicity = 1

                         Standard orientation:
 ---------------------------------------------------------------------
 Center     Atomic      Atomic             Coordinates (Angstroms)
 Number     Number       Type             X           Y           Z
 ---------------------------------------------------------------------
      1          6           0       -2.470076    0.512615    0.000680
      2          6           0       -2.388163    1.923727    0.001918
      3          6           0       -1.175296    2.586384   -0.007109
      4          6           0        0.039501    1.867681   -0.020649
      5          6           0        1.306855    2.531181   -0.018751
      6          6           0        2.478695    1.827461   -0.034670
      7          6           0        2.502935    0.392412   -0.062743
      8          6           0        3.726732   -0.353002   -0.091208
      9          6           0        3.638596   -1.764120   -0.093155
     10          6           0        2.423694   -2.429327   -0.056140
     11          6           0        1.206356   -1.721636   -0.037406
     12          6           0       -0.060692   -2.383912   -0.022400
     13          6           0       -1.236057   -1.686708   -0.012269
     14          6           0       -1.257074   -0.250038   -0.013230
     15          6           0        0.006774    0.438371   -0.027180
     16          6           0        1.241331   -0.294422   -0.044523
     17          6           0       -3.765478   -0.148905    0.014584
     18          6           0        5.025653    0.314304   -0.130125
     19          6           0       -4.982481    0.430940    0.030504
     20          6           0        6.207722   -0.249558    0.231784
     21          7           0        7.446314    0.323714    0.107219
     22          7           0       -6.183136   -0.386088    0.043593
     23          8           0       -7.245243    0.227210    0.059213
     24          8           0       -6.083605   -1.607447    0.038324
     25          1           0       -3.307857    2.511902    0.011957
     26          1           0       -1.147456    3.679189   -0.002805
     27          1           0        1.322368    3.624299    0.002664
     28          1           0        3.419756    2.377338   -0.014171
     29          1           0        4.555418   -2.353707   -0.159750
     30          1           0        2.402024   -3.522859   -0.065540
     31          1           0       -0.076691   -3.477547   -0.019731
     32          1           0       -2.172413   -2.243604   -0.001681
     33          1           0       -3.798702   -1.239558    0.012577
     34          1           0        5.055134    1.349832   -0.480768
     35          1           0       -5.221987    1.491999    0.036107
     36          1           0        6.233951   -1.263525    0.644291
     37          1           0        8.200759   -0.022994    0.685838
     38          1           0        7.507087    1.307059   -0.132439
 ---------------------------------------------------------------------

 SCF Done:  E(RB3LYP) =  -1030.49736258     A.U. after   16 cycles

 The electronic state is 1-A.
 Alpha  occ. eigenvalues --  -19.14752 -19.14715 -14.54135 -14.36801 -10.24648
 Alpha  occ. eigenvalues --  -10.23133 -10.22058 -10.21662 -10.21513 -10.21422
 Alpha  occ. eigenvalues --  -10.21146 -10.20991 -10.20732 -10.20689 -10.20498
 Alpha  occ. eigenvalues --  -10.20328 -10.20223 -10.20163 -10.20105 -10.20061
 Alpha  occ. eigenvalues --  -10.20047 -10.19783 -10.19717 -10.18826  -1.21008
 Alpha  occ. eigenvalues --   -1.03490  -0.93923  -0.90218  -0.86789  -0.84328
 Alpha  occ. eigenvalues --   -0.83444  -0.80889  -0.78800  -0.76383  -0.75664
 Alpha  occ. eigenvalues --   -0.73820  -0.72075  -0.68651  -0.64555  -0.63947
 Alpha  occ. eigenvalues --   -0.62882  -0.61777  -0.59790  -0.57240  -0.55642
 Alpha  occ. eigenvalues --   -0.54323  -0.53542  -0.52783  -0.51649  -0.51515
 Alpha  occ. eigenvalues --   -0.51348  -0.50383  -0.48498  -0.48039  -0.47284
 Alpha  occ. eigenvalues --   -0.45428  -0.44655  -0.44269  -0.42744  -0.42169
 Alpha  occ. eigenvalues --   -0.41771  -0.40889  -0.40651  -0.40004  -0.39004
 Alpha  occ. eigenvalues --   -0.38366  -0.38248  -0.36812  -0.36069  -0.35419
 Alpha  occ. eigenvalues --   -0.33912  -0.33031  -0.32645  -0.29918  -0.28941
 Alpha  occ. eigenvalues --   -0.28907  -0.28107  -0.27071  -0.26470  -0.24388
 Alpha  occ. eigenvalues --   -0.23075  -0.18985
 Alpha virt. eigenvalues --   -0.09525  -0.05648  -0.04000  -0.02068  -0.00700
 Alpha virt. eigenvalues --    0.02396   0.02944   0.03392   0.04918   0.06008
 Alpha virt. eigenvalues --    0.06461   0.07595   0.07950   0.08385   0.09543

 Mulliken charges:
               1
     1  C    0.010745
     2  C    0.012399
     3  C    0.031460
     4  C    0.021266
     5  C    0.042915
     6  C   -0.007208
     7  C    0.011309
     8  C    0.030895
     9  C    0.001741
    10  C    0.030997
    11  C    0.016828
    12  C    0.048792
    13  C   -0.025248
    14  C    0.032540
    15  C    0.070984
    16  C    0.069931
    17  C    0.064436
    18  C   -0.033400
    19  C    0.098261
    20  C    0.036765
    21  N   -0.064525
    22  N    0.215044
    23  O   -0.261622
    24  O   -0.264481
    25  H   -0.036827
    26  H   -0.046410
    27  H   -0.050111
    28  H   -0.044364
    29  H   -0.044515
    30  H   -0.046486
    31  H   -0.045999
    32  H   -0.033694
    33  H    0.000840
    34  H   -0.031556
    35  H   -0.007483
    36  H    0.003479
    37  H    0.101981
    38  H    0.090320
 Sum of Mulliken charges =  -0.00000

 Dipole moment (field-independent basis, Debye):
    X=             11.4448    Y=              2.0678    Z=              0.7308  Tot=             11.6530
 Quadrupole moment (field-independent basis, Debye-Ang):
   XX=           -135.2009   YY=           -123.1809   ZZ=           -142.4322
   XY=             -5.4803   XZ=              7.0780   YZ=             -1.1907

  Exact polarizability:     663.670     -23.056     265.639       3.402      -2.642      80.447
 Approx polarizability:    1138.126     -77.889     525.036       2.675      -4.736     137.178

 Normal termination of Gaussian 16 at Fri Aug 15 16:02:06 2025.
