 Gaussian 16, Revision C.01,
 Gaussian 16:  ES64L-G16RevC.01  3-Jul-2019

 ----------------------
 #P b3lyp/cc-pvdz polar
 ----------------------

 -
 p
 -
 Symbolic Z-matrix:
 Charge =  0 Multiplicity = 1

                         Standard orientation:
 ---------------------------------------------------------------------
 Center     Atomic      Atomic             Coordinates (Angstroms)
 Number     Number       Type             X           Y           Z
 ---------------------------------------------------------------------
      1          6           0        2.461705    0.513118    0.002577
      2          6           0        2.378305    1.923822    0.002426
      3          6           0        1.164199    2.585126   -0.013682
      4          6           0       -0.049165    1.865400   -0.033125
      5          6           0       -1.317940    2.528041   -0.041274
      6          6           0       -2.488825    1.824073   -0.061819
      7          6           0       -2.507552    0.387792   -0.084252
      8          6           0       -3.725860   -0.359968   -0.113606
      9          6           0       -3.642896   -1.768750   -0.118176
     10          6           0       -2.426884   -2.435348   -0.078147
     11          6           0       -1.211828   -1.725743   -0.052868
     12          6           0        0.057315   -2.387142   -0.031306
     13          6           0        1.230536   -1.687971   -0.015022
     14          6           0        1.250293   -0.250301   -0.016613
     15          6           0       -0.013547    0.436283   -0.037476
     16          6           0       -1.246342   -0.298229   -0.060165
     17          6           0        3.758598   -0.147802    0.022868
     18          6           0       -5.028304    0.310793   -0.153434
     19          6           0        4.973866    0.433832    0.039983
     20          6           0       -6.187367   -0.219414    0.283340
     21          8           0       -7.359228    0.448735    0.170482
     22          7           0        6.176336   -0.382744    0.059966
     23          8           0        7.236997    0.232022    0.075078
     24          8           0        6.077045   -1.603722    0.061154
     25          1           0        3.296996    2.513349    0.017085
     26          1           0        1.135353    3.677866   -0.010592
     27          1           0       -1.334608    3.621164   -0.025122
     28          1           0       -3.432276    2.370253   -0.051559
     29          1           0       -4.561961   -2.354640   -0.188972
     30          1           0       -2.404335   -3.528685   -0.089205
     31          1           0        0.074840   -3.480634   -0.028455
     32          1           0        2.167650   -2.243503    0.000715
     33          1           0        3.793210   -1.238394    0.025055
     34          1           0       -5.089705    1.322827   -0.561134
     35          1           0        5.212520    1.495142    0.041407
     36          1           0       -6.234868   -1.206883    0.758381
     37          1           0       -8.065519   -0.050607    0.597556
 ---------------------------------------------------------------------

 SCF Done:  E(RB3LYP) =  -1050.35896696     A.U. after   16 cycles

 The electronic state is 1-A.
 Alpha  occ. eigenvalues --  -19.19425 -19.15187 -19.15146 -14.54563 -10.26539
 Alpha  occ. eigenvalues --  -10.23612 -10.22507 -10.22148 -10.22007 -10.21962
 Alpha  occ. eigenvalues --  -10.21595 -10.21461 -10.21305 -10.21237 -10.20954
 Alpha  occ. eigenvalues --  -10.20881 -10.20705 -10.20669 -10.20618 -10.20556
 Alpha  occ. eigenvalues --  -10.20504 -10.20373 -10.20370 -10.19499  -1.21456
 Alpha  occ. eigenvalues --   -1.08431  -1.03948  -0.90756  -0.87370  -0.84809
 Alpha  occ. eigenvalues --   -0.84030  -0.81514  -0.79560  -0.77317  -0.76160
 Alpha  occ. eigenvalues --   -0.74423  -0.73037  -0.69187  -0.65090  -0.64577
 Alpha  occ. eigenvalues --   -0.63374  -0.62181  -0.59263  -0.57892  -0.56833
 Alpha  occ. eigenvalues --   -0.54922  -0.53972  -0.53285  -0.52135  -0.51942
 Alpha  occ. eigenvalues --   -0.51430  -0.50732  -0.48654  -0.47964  -0.46486
 Alpha  occ. eigenvalues --   -0.45638  -0.45111  -0.43785  -0.43283  -0.42635
 Alpha  occ. eigenvalues --   -0.41922  -0.41325  -0.41120  -0.40598  -0.40244
 Alpha  occ. eigenvalues --   -0.38788  -0.38420  -0.37914  -0.36368  -0.35873
 Alpha  occ. eigenvalues --   -0.34426  -0.33744  -0.33156  -0.30391  -0.29359
 Alpha  occ. eigenvalues --   -0.29309  -0.28904  -0.27494  -0.26985  -0.25013
 Alpha  occ. eigenvalues --   -0.24147  -0.20096
 Alpha virt. eigenvalues --   -0.10004  -0.06178  -0.04525  -0.02526  -0.01237
 Alpha virt. eigenvalues --    0.01828   0.02305   0.02429   0.05644   0.05772
 Alpha virt. eigenvalues --    0.06590   0.07189   0.07504   0.08816   0.09305

 Mulliken charges:
               1
     1  C    0.011498
     2  C    0.012925
     3  C    0.033366
     4  C    0.020107
     5  C    0.044706
     6  C   -0.005507
     7  C    0.016103
     8  C    0.025446
     9  C    0.007430
    10  C    0.029642
    11  C    0.018678
    12  C    0.048858
    13  C   -0.022293
    14  C    0.032172
    15  C    0.073169
    16  C    0.069277
    17  C    0.064555
    18  C   -0.031177
    19  C    0.099875
    20  C    0.095626
    21  O   -0.155386
    22  N    0.215403
    23  O   -0.258753
    24  O   -0.262394
    25  H   -0.035194
    26  H   -0.043646
    27  H   -0.046073
    28  H   -0.036284
    29  H   -0.045467
    30  H   -0.044100
    31  H   -0.043974
    32  H   -0.031631
    33  H    0.001689
    34  H   -0.007121
    35  H   -0.005706
    36  H   -0.002761
    37  H    0.156941
 Sum of Mulliken charges =  -0.00000

 Dipole moment (field-independent basis, Debye):
    X=             -9.2918    Y=              0.4445    Z=              0.8542  Tot=              9.3416
 Quadrupole moment (field-independent basis, Debye-Ang):
   XX=           -147.6497   YY=           -123.4718   ZZ=           -140.6883
   XY=             18.8484   XZ=             -8.3438   YZ=             -0.9906

  Exact polarizability:     610.620      28.678     261.806      -4.031      -2.595      79.435
 Approx polarizability:    1043.207      83.471     519.158      -3.539      -4.599     135.827

 Normal termination of Gaussian 16 at Fri Aug 15 18:40:02 2025.
