                         Program Version 5.0.4 -  RELEASE  -
|  1> ! B3LYP def2-SVP Opt PAL8 FREQ
|  2> *xyz 0 1
|  3>   C  -12.076799    3.710487   -0.363930
|  4>   C  -10.882321    4.334033   -0.364956
|  5>   C   -9.730517    3.663047   -0.265714
|  6>   C   -9.741835    2.327887   -0.161211
|  7>   C   -8.579721    1.669598   -0.063065
|  8>   C   -8.566062    0.336259    0.041724
|  9>   C   -9.696455   -0.399445    0.054170
| 10>   C   -9.686563   -1.758690    0.160458
| 11>   C  -10.884043   -2.377392    0.161754
| 12>   C  -12.035310   -1.705383    0.063913
| 13>   C  -12.023095   -0.370534   -0.040325
| 14>   C  -13.185557    0.287659   -0.138029
| 15>   C  -13.199175    1.620857   -0.243458
| 16>   C  -12.066906    2.352584   -0.256196
| 17>   C  -10.905974    1.653403   -0.154805
| 18>   C  -10.857203    0.300933   -0.046725
| 19>   C  -13.202002    4.458963   -0.468962
| 20>   C   -8.558685   -2.506352    0.262864
| 21>   C  -13.327072    5.795194   -0.580021
| 22>   C   -8.425742   -3.844294    0.371538
| 23>   C  -14.514260    6.356273   -0.673105
| 24>   N   -7.346884   -4.520306    0.464928
| 25>   C   -7.442699   -5.999699    0.578571
| 26>   C   -6.033551   -3.834702    0.454869
| 27>   N  -15.558013    6.851435   -0.755183
| 28>   H  -10.770266    5.425285   -0.446573
| 29>   H   -8.782230    4.228494   -0.272243
| 30>   H   -7.618039    2.212672   -0.067112
| 31>   H   -7.552800   -0.082681    0.114843
| 32>   H  -11.005721   -3.467349    0.242343
| 33>   H  -12.984395   -2.269626    0.070798
| 34>   H  -14.147557   -0.254725   -0.133500
| 35>   H  -14.209793    2.046062   -0.316906
| 36>   H  -14.186175    3.967264   -0.470198
| 37>   H   -7.596273   -1.985154    0.261082
| 38>   H  -12.477185    6.491298   -0.600600
| 39>   H   -9.317114   -4.483232    0.385017
| 40>   H   -8.470135   -6.393608    0.741180
| 41>   H   -7.037271   -6.466497   -0.347885
| 42>   H   -6.826356   -6.344051    1.439976
| 43>   H   -5.869588   -3.281939   -0.498060
| 44>   H   -5.921798   -3.158665    1.332994
| 45>   H   -5.214433   -4.585363    0.525740
| 46> *
| 47>
| 48>                          ****END OF INPUT****
 Total Charge           Charge          ....    0
 Multiplicity           Mult            ....    1
 Number of Electrons    NEL             ....  170
FINAL SINGLE POINT ENERGY      -995.302113287788
FINAL SINGLE POINT ENERGY      -995.396774458127
FINAL SINGLE POINT ENERGY      -995.439718911005
FINAL SINGLE POINT ENERGY      -995.446707050799
FINAL SINGLE POINT ENERGY      -995.447391211850
FINAL SINGLE POINT ENERGY      -995.447586448137
FINAL SINGLE POINT ENERGY      -995.447630740099
FINAL SINGLE POINT ENERGY      -995.447642457604
FINAL SINGLE POINT ENERGY      -995.447650748281
FINAL SINGLE POINT ENERGY      -995.447657612314
FINAL SINGLE POINT ENERGY      -995.448129678638
FINAL SINGLE POINT ENERGY      -995.448193874845
FINAL SINGLE POINT ENERGY      -995.448271612806
FINAL SINGLE POINT ENERGY      -995.448367841516
FINAL SINGLE POINT ENERGY      -995.448485039023
FINAL SINGLE POINT ENERGY      -995.448535544964
FINAL SINGLE POINT ENERGY      -995.448550455371
FINAL SINGLE POINT ENERGY      -995.448558696145
FINAL SINGLE POINT ENERGY      -995.448560526505
                    ***********************HURRAY********************

CARTESIAN COORDINATES (ANGSTROEM)
---------------------------------
  C    -12.114239    3.865976   -0.424965
  C    -10.859154    4.506333   -0.523000
  C     -9.669235    3.807330   -0.432244
  C     -9.666022    2.411079   -0.230866
  C     -8.448179    1.664747   -0.142412
  C     -8.454788    0.312563    0.055847
  C     -9.676785   -0.428717    0.194285
  C     -9.692152   -1.845796    0.411461
  C    -10.950678   -2.482802    0.509737
  C    -12.143639   -1.787902    0.388711
  C    -12.156619   -0.395086    0.182937
  C    -13.373154    0.348276    0.071970
  C    -13.373465    1.700755   -0.122038
  C    -12.149183    2.448563   -0.220341
  C    -10.912155    1.719175   -0.118709
  C    -10.911355    0.297975    0.088879
  C    -13.346606    4.641307   -0.525876
  C     -8.453699   -2.611055    0.538690
  C    -13.468273    5.946686   -0.880295
  C     -8.351164   -3.951096    0.307181
  C    -14.730920    6.606375   -0.931352
  N     -7.251069   -4.743726    0.501746
  C     -7.164676   -6.025606   -0.170417
  C     -6.018470   -4.164333    0.988658
  N    -15.752696    7.161245   -0.981269
  H    -10.820258    5.588728   -0.660405
  H     -8.715580    4.336140   -0.510345
  H     -7.500595    2.200671   -0.245735
  H     -7.502330   -0.216297    0.096416
  H    -10.988122   -3.553299    0.722625
  H    -13.095076   -2.320202    0.477491
  H    -14.321595   -0.191990    0.142784
  H    -14.331892    2.211388   -0.210271
  H    -14.278050    4.123575   -0.290229
  H     -7.556438   -2.065085    0.830463
  H    -12.604153    6.557953   -1.155910
  H     -9.217173   -4.500434   -0.076067
  H     -8.174695   -6.427745   -0.339142
  H     -6.656647   -5.961854   -1.154376
  H     -6.609716   -6.748066    0.450365
  H     -5.519864   -3.522441    0.233636
  H     -6.212696   -3.547584    1.880825
  H     -5.320318   -4.965722    1.271557

 Multiplicity           Mult            ....    1
 Number of Electrons    NEL             ....  170
 Basis Dimension        Dim             ....  440

ORBITAL ENERGIES
----------------

  NO   OCC          E(Eh)            E(eV)
   0   2.0000     -14.366818      -390.9410
   1   2.0000     -14.309407      -389.3788
   2   2.0000     -10.238356      -278.5998
   3   2.0000     -10.234113      -278.4844
   4   2.0000     -10.232923      -278.4520
   5   2.0000     -10.218338      -278.0551
   6   2.0000     -10.216370      -278.0016
   7   2.0000     -10.211554      -277.8705
   8   2.0000     -10.208123      -277.7772
   9   2.0000     -10.205479      -277.7052
  10   2.0000     -10.205172      -277.6968
  11   2.0000     -10.202367      -277.6205
  12   2.0000     -10.202049      -277.6119
  13   2.0000     -10.199539      -277.5436
  14   2.0000     -10.198532      -277.5162
  15   2.0000     -10.197265      -277.4817
  16   2.0000     -10.195229      -277.4263
  17   2.0000     -10.194946      -277.4186
  18   2.0000     -10.194176      -277.3976
  19   2.0000     -10.193603      -277.3820
  20   2.0000     -10.193583      -277.3815
  21   2.0000     -10.193123      -277.3690
  22   2.0000     -10.191834      -277.3339
  23   2.0000     -10.189644      -277.2743
  24   2.0000     -10.180041      -277.0130
  25   2.0000      -0.957898       -26.0657
  26   2.0000      -0.887424       -24.1480
  27   2.0000      -0.879074       -23.9208
  28   2.0000      -0.852128       -23.1876
  29   2.0000      -0.827417       -22.5152
  30   2.0000      -0.813854       -22.1461
  31   2.0000      -0.785844       -21.3839
  32   2.0000      -0.776156       -21.1203
  33   2.0000      -0.750645       -20.4261
  34   2.0000      -0.740010       -20.1367
  35   2.0000      -0.734720       -19.9927
  36   2.0000      -0.724984       -19.7278
  37   2.0000      -0.712273       -19.3819
  38   2.0000      -0.668011       -18.1775
  39   2.0000      -0.650442       -17.6994
  40   2.0000      -0.629367       -17.1259
  41   2.0000      -0.618791       -16.8382
  42   2.0000      -0.609116       -16.5749
  43   2.0000      -0.589674       -16.0458
  44   2.0000      -0.568934       -15.4815
  45   2.0000      -0.543405       -14.7868
  46   2.0000      -0.529343       -14.4042
  47   2.0000      -0.526978       -14.3398
  48   2.0000      -0.516813       -14.0632
  49   2.0000      -0.508427       -13.8350
  50   2.0000      -0.501408       -13.6440
  51   2.0000      -0.492385       -13.3985
  52   2.0000      -0.481543       -13.1035
  53   2.0000      -0.474875       -12.9220
  54   2.0000      -0.463688       -12.6176
  55   2.0000      -0.447370       -12.1736
  56   2.0000      -0.444586       -12.0978
  57   2.0000      -0.435910       -11.8617
  58   2.0000      -0.426045       -11.5933
  59   2.0000      -0.418384       -11.3848
  60   2.0000      -0.417993       -11.3742
  61   2.0000      -0.414907       -11.2902
  62   2.0000      -0.412535       -11.2256
  63   2.0000      -0.402374       -10.9492
  64   2.0000      -0.400519       -10.8987
  65   2.0000      -0.399330       -10.8663
  66   2.0000      -0.393836       -10.7168
  67   2.0000      -0.382758       -10.4154
  68   2.0000      -0.380155       -10.3445
  69   2.0000      -0.377396       -10.2695
  70   2.0000      -0.361087        -9.8257
  71   2.0000      -0.356239        -9.6938
  72   2.0000      -0.347975        -9.4689
  73   2.0000      -0.343041        -9.3346
  74   2.0000      -0.336174        -9.1477
  75   2.0000      -0.332272        -9.0416
  76   2.0000      -0.322617        -8.7789
  77   2.0000      -0.317682        -8.6446
  78   2.0000      -0.309676        -8.4267
  79   2.0000      -0.290715        -7.9107
  80   2.0000      -0.266620        -7.2551
  81   2.0000      -0.259795        -7.0694
  82   2.0000      -0.237059        -6.4507
  83   2.0000      -0.220604        -6.0030
  84   2.0000      -0.182173        -4.9572
  85   0.0000      -0.083236        -2.2650
  86   0.0000      -0.043642        -1.1876
  87   0.0000      -0.031888        -0.8677
  88   0.0000      -0.012031        -0.3274
  89   0.0000       0.012030         0.3274

MULLIKEN ATOMIC CHARGES
-----------------------
   0 C :    0.056339
   1 C :   -0.022817
   2 C :   -0.032826
   3 C :    0.072102
   4 C :   -0.013431
   5 C :   -0.032446
   6 C :    0.053611
   7 C :    0.091146
   8 C :   -0.045716
   9 C :   -0.025665
  10 C :    0.061102
  11 C :   -0.006446
  12 C :   -0.047244
  13 C :    0.084809
  14 C :    0.053784
  15 C :    0.065405
  16 C :    0.020375
  17 C :   -0.101025
  18 C :   -0.124543
  19 C :    0.108898
  20 C :   -0.099322
  21 N :   -0.289069
  22 C :    0.122094
  23 C :    0.128658
  24 N :    0.029472
  25 H :   -0.027600
  26 H :   -0.033152
  27 H :   -0.035322
  28 H :   -0.037117
  29 H :   -0.035028
  30 H :   -0.034031
  31 H :   -0.032022
  32 H :   -0.032521
  33 H :    0.005643
  34 H :   -0.021947
  35 H :    0.033656
  36 H :   -0.004430
  37 H :    0.027827
  38 H :    0.021637
  39 H :    0.024247
  40 H :    0.017085
  41 H :    0.036377
  42 H :    0.019454
Sum of atomic charges:   -0.0000000

LOEWDIN ATOMIC CHARGES
----------------------
   0 C :   -0.041093
   1 C :   -0.007412
   2 C :   -0.024858
   3 C :   -0.007289
   4 C :   -0.023479
   5 C :   -0.009165
   6 C :   -0.023178
   7 C :    0.001081
   8 C :   -0.031990
   9 C :   -0.011611
  10 C :   -0.030570
  11 C :   -0.006003
  12 C :   -0.031529
  13 C :    0.002178
  14 C :    0.001497
  15 C :    0.004448
  16 C :    0.033472
  17 C :   -0.120580
  18 C :   -0.080083
  19 C :    0.037346
  20 C :   -0.037668
  21 N :   -0.044278
  22 C :    0.035406
  23 C :    0.030359
  24 N :   -0.082914
  25 H :    0.027099
  26 H :    0.027255
  27 H :    0.026741
  28 H :    0.025306
  29 H :    0.022374
  30 H :    0.026819
  31 H :    0.028540
  32 H :    0.026163
  33 H :    0.035916
  34 H :    0.019209
  35 H :    0.042642
  36 H :    0.022316
  37 H :    0.027943
  38 H :    0.015251
  39 H :    0.023003
  40 H :    0.015955
  41 H :    0.028889
  42 H :    0.026494

  Mayer bond orders larger than 0.100000
B(  0-C ,  1-C ) :   1.3041 B(  0-C , 13-C ) :   1.2497 B(  0-C , 16-C ) :   1.1236
B(  1-C ,  2-C ) :   1.4036 B(  1-C , 25-H ) :   0.9761 B(  2-C ,  3-C ) :   1.2627
B(  2-C , 26-H ) :   0.9877 B(  3-C ,  4-C ) :   1.1676 B(  3-C , 14-C ) :   1.2418
B(  4-C ,  5-C ) :   1.5256 B(  4-C , 27-H ) :   0.9842 B(  5-C ,  6-C ) :   1.1761
B(  5-C , 28-H ) :   0.9753 B(  6-C ,  7-C ) :   1.2587 B(  6-C , 15-C ) :   1.2310
B(  7-C ,  8-C ) :   1.3115 B(  7-C , 17-C ) :   1.1108 B(  8-C ,  9-C ) :   1.3880
B(  8-C , 29-H ) :   0.9750 B(  9-C , 10-C ) :   1.2726 B(  9-C , 30-H ) :   0.9861
B( 10-C , 11-C ) :   1.1636 B( 10-C , 15-C ) :   1.2407 B( 11-C , 12-C ) :   1.5356
B( 11-C , 31-H ) :   0.9827 B( 12-C , 13-C ) :   1.1713 B( 12-C , 32-H ) :   0.9772
B( 13-C , 14-C ) :   1.2328 B( 14-C , 15-C ) :   1.2278 B( 16-C , 18-C ) :   1.7367
B( 16-C , 33-H ) :   0.9584 B( 17-C , 19-C ) :   1.6273 B( 17-C , 34-H ) :   0.9473
B( 18-C , 20-C ) :   1.1101 B( 18-C , 35-H ) :   0.9440 B( 19-C , 21-N ) :   1.1917
B( 19-C , 36-H ) :   0.9517 B( 20-C , 24-N ) :   2.9607 B( 21-N , 22-C ) :   1.0006
B( 21-N , 23-C ) :   1.0147 B( 22-C , 37-H ) :   0.9691 B( 22-C , 38-H ) :   0.9627
B( 22-C , 39-H ) :   0.9697 B( 23-C , 40-H ) :   0.9590 B( 23-C , 41-H ) :   0.9604
B( 23-C , 42-H ) :   0.9662

FINAL SINGLE POINT ENERGY      -995.448562170691

DIPOLE MOMENT
-------------
                                X             Y             Z
Electronic contribution:    -18.79196      25.68872      -2.01878
Nuclear contribution   :     21.67656     -29.02546       2.26481
                        -----------------------------------------
Total Dipole Moment    :      2.88459      -3.33674       0.24602
                        -----------------------------------------
Magnitude (a.u.)       :      4.41761
Magnitude (Debye)      :     11.22867

VIBRATIONAL FREQUENCIES
-----------------------

Scaling factor for frequencies =  1.000000000  (already applied!)

   0:         0.00 cm**-1
   1:         0.00 cm**-1
   2:         0.00 cm**-1
   3:         0.00 cm**-1
   4:         0.00 cm**-1
   5:         0.00 cm**-1
   6:        17.84 cm**-1
   7:        26.64 cm**-1
   8:        37.31 cm**-1
   9:        55.50 cm**-1
  10:        57.38 cm**-1
  11:        84.12 cm**-1
  12:        96.69 cm**-1
  13:       126.89 cm**-1
  14:       140.26 cm**-1
  15:       165.31 cm**-1
  16:       177.74 cm**-1
  17:       197.30 cm**-1
  18:       211.37 cm**-1
  19:       220.79 cm**-1
  20:       231.96 cm**-1
  21:       258.28 cm**-1
  22:       265.52 cm**-1
  23:       295.58 cm**-1
  24:       299.50 cm**-1
  25:       330.45 cm**-1
  26:       368.24 cm**-1
  27:       405.97 cm**-1
  28:       420.89 cm**-1
  29:       446.73 cm**-1
  30:       453.66 cm**-1
  31:       483.57 cm**-1
  32:       495.67 cm**-1
  33:       512.13 cm**-1
  34:       522.89 cm**-1
  35:       529.21 cm**-1
  36:       555.76 cm**-1
  37:       565.51 cm**-1
  38:       571.45 cm**-1
  39:       583.34 cm**-1
  40:       614.45 cm**-1
  41:       630.01 cm**-1
  42:       679.37 cm**-1
  43:       701.95 cm**-1
  44:       717.52 cm**-1
  45:       751.65 cm**-1
  46:       761.26 cm**-1
  47:       781.09 cm**-1
  48:       814.42 cm**-1
  49:       815.77 cm**-1
  50:       821.43 cm**-1
  51:       839.17 cm**-1
  52:       853.07 cm**-1
  53:       867.79 cm**-1
  54:       880.56 cm**-1
  55:       886.67 cm**-1
  56:       901.99 cm**-1
  57:       941.65 cm**-1
  58:       960.23 cm**-1
  59:       984.08 cm**-1
  60:       989.18 cm**-1
  61:       993.46 cm**-1
  62:       999.57 cm**-1
  63:      1001.19 cm**-1
  64:      1010.23 cm**-1
  65:      1013.63 cm**-1
  66:      1041.06 cm**-1
  67:      1082.60 cm**-1
  68:      1108.87 cm**-1
  69:      1113.53 cm**-1
  70:      1128.46 cm**-1
  71:      1131.93 cm**-1
  72:      1153.49 cm**-1
  73:      1179.03 cm**-1
  74:      1187.36 cm**-1
  75:      1201.98 cm**-1
  76:      1211.24 cm**-1
  77:      1240.84 cm**-1
  78:      1251.97 cm**-1
  79:      1264.02 cm**-1
  80:      1267.90 cm**-1
  81:      1276.54 cm**-1
  82:      1282.70 cm**-1
  83:      1325.58 cm**-1
  84:      1330.25 cm**-1
  85:      1341.84 cm**-1
  86:      1370.44 cm**-1
  87:      1383.00 cm**-1
  88:      1394.23 cm**-1
  89:      1405.26 cm**-1
  90:      1417.89 cm**-1
  91:      1425.01 cm**-1
  92:      1434.57 cm**-1
  93:      1441.87 cm**-1
  94:      1451.66 cm**-1
  95:      1455.59 cm**-1
  96:      1461.02 cm**-1
  97:      1466.29 cm**-1
  98:      1484.44 cm**-1
  99:      1502.29 cm**-1
 100:      1507.54 cm**-1
 101:      1534.83 cm**-1
 102:      1547.31 cm**-1
 103:      1572.27 cm**-1
 104:      1620.07 cm**-1
 105:      1634.63 cm**-1
 106:      1654.86 cm**-1
 107:      1661.06 cm**-1
 108:      1672.15 cm**-1
 109:      1691.28 cm**-1
 110:      2335.30 cm**-1
 111:      2969.96 cm**-1
 112:      2976.47 cm**-1
 113:      3067.23 cm**-1
 114:      3071.62 cm**-1
 115:      3123.74 cm**-1
 116:      3125.87 cm**-1
 117:      3164.33 cm**-1
 118:      3169.41 cm**-1
 119:      3172.14 cm**-1
 120:      3172.55 cm**-1
 121:      3174.17 cm**-1
 122:      3177.71 cm**-1
 123:      3191.64 cm**-1
 124:      3196.80 cm**-1
 125:      3197.39 cm**-1
 126:      3199.92 cm**-1
 127:      3216.14 cm**-1
 128:      3220.02 cm**-1

IR SPECTRUM
-----------

 Mode   freq       eps      Int      T**2         TX        TY        TZ
       cm**-1   L/(mol*cm) km/mol    a.u.
----------------------------------------------------------------------------
  6:     17.84   0.000097    0.49  0.001698  (-0.030143  0.019943 -0.019798)
  7:     26.64   0.000165    0.83  0.001931  ( 0.022426  0.013450  0.035310)
  8:     37.31   0.000437    2.21  0.003657  (-0.025268  0.042307 -0.035057)
  9:     55.50   0.000442    2.24  0.002487  ( 0.001438  0.000615  0.049845)
 10:     57.38   0.000120    0.61  0.000655  ( 0.014084  0.003925  0.021005)
 11:     84.12   0.000939    4.75  0.003485  ( 0.016172  0.054695 -0.015228)
 12:     96.69   0.000424    2.14  0.001369  (-0.017960  0.030898  0.009597)
 13:    126.89   0.000522    2.64  0.001283  (-0.018968  0.029189 -0.008424)
 14:    140.26   0.001366    6.91  0.003040  (-0.024133  0.048136 -0.011867)
 15:    165.31   0.000500    2.53  0.000943  (-0.015334  0.018283  0.019335)
 16:    177.74   0.000158    0.80  0.000277  ( 0.006043  0.013532 -0.007557)
 17:    197.30   0.000142    0.72  0.000224  (-0.009297 -0.001321 -0.011674)
 18:    211.37   0.000196    0.99  0.000289  ( 0.000845 -0.013569 -0.010209)
 19:    220.79   0.001112    5.62  0.001572  ( 0.001036  0.014641  0.036831)
 20:    231.96   0.000570    2.88  0.000767  (-0.009404 -0.017558  0.019246)
 21:    258.28   0.000051    0.26  0.000062  ( 0.002895 -0.007136 -0.001614)
 22:    265.52   0.000015    0.08  0.000018  ( 0.002510  0.000825 -0.003338)
 23:    295.58   0.000501    2.53  0.000529  (-0.020086  0.011191 -0.000665)
 24:    299.50   0.000990    5.01  0.001032  ( 0.013504 -0.027979  0.008174)
 25:    330.45   0.005687   28.74  0.005370  ( 0.031903 -0.063934  0.016273)
 26:    368.24   0.000632    3.19  0.000535  ( 0.008990 -0.021115 -0.002917)
 27:    405.97   0.003897   19.69  0.002995  (-0.026312  0.047801  0.004260)
 28:    420.89   0.000410    2.07  0.000304  (-0.010807  0.012650 -0.005243)
 29:    446.73   0.000055    0.28  0.000038  (-0.005356  0.002624  0.001605)
 30:    453.66   0.001823    9.21  0.001254  (-0.021085  0.026589 -0.010137)
 31:    483.57   0.000156    0.79  0.000101  (-0.003109 -0.007334 -0.006095)
 32:    495.67   0.000539    2.72  0.000339  (-0.001045 -0.002235 -0.018253)
 33:    512.13   0.000640    3.23  0.000390  ( 0.008260 -0.015899  0.008309)
 34:    522.89   0.000975    4.93  0.000582  (-0.000144  0.024114 -0.000564)
 35:    529.21   0.000482    2.44  0.000284  (-0.001978  0.016110 -0.004553)
 36:    555.76   0.000087    0.44  0.000049  (-0.001770  0.000348 -0.006738)
 37:    565.51   0.000011    0.06  0.000006  (-0.000639 -0.001502  0.001912)
 38:    571.45   0.000424    2.14  0.000231  (-0.009750  0.009816 -0.006328)
 39:    583.34   0.000352    1.78  0.000188  (-0.002549 -0.000159  0.013488)
 40:    614.45   0.001751    8.85  0.000889  ( 0.013086 -0.026114  0.006009)
 41:    630.01   0.000022    0.11  0.000011  ( 0.000909 -0.003051 -0.000812)
 42:    679.37   0.000510    2.58  0.000234  (-0.005797  0.011087 -0.008818)
 43:    701.95   0.000575    2.91  0.000256  (-0.010473  0.012018 -0.001267)
 44:    717.52   0.001322    6.68  0.000575  (-0.005253  0.007323 -0.022218)
 45:    751.65   0.001830    9.25  0.000760  ( 0.002089  0.006630  0.026675)
 46:    761.26   0.000804    4.06  0.000330  ( 0.003585 -0.008384 -0.015697)
 47:    781.09   0.000281    1.42  0.000112  ( 0.006221 -0.008513  0.000999)
 48:    814.42   0.000591    2.99  0.000227  (-0.006296 -0.001430  0.013596)
 49:    815.77   0.005916   29.90  0.002263  (-0.021053  0.042164 -0.006498)
 50:    821.43   0.000598    3.02  0.000227  ( 0.014979  0.000397 -0.001648)
 51:    839.17   0.004159   21.02  0.001547  ( 0.007338 -0.009193 -0.037528)
 52:    853.07   0.000170    0.86  0.000062  (-0.004305  0.006331  0.001846)
 53:    867.79   0.004105   20.75  0.001476  (-0.003657  0.005135  0.037901)
 54:    880.56   0.001101    5.56  0.000390  (-0.003867  0.005085 -0.018690)
 55:    886.67   0.006116   30.91  0.002153  ( 0.004950  0.006176  0.045716)
 56:    901.99   0.004927   24.90  0.001704  (-0.030314  0.026961  0.007659)
 57:    941.65   0.000993    5.02  0.000329  ( 0.005621 -0.010235 -0.013885)
 58:    960.23   0.016728   84.54  0.005436  ( 0.045978 -0.049511 -0.029514)
 59:    984.08   0.004860   24.56  0.001541  (-0.010288  0.026188  0.027376)
 60:    989.18   0.002524   12.75  0.000796  (-0.015485  0.022825 -0.005956)
 61:    993.46   0.001306    6.60  0.000410  (-0.006315  0.018781  0.004213)
 62:    999.57   0.001907    9.64  0.000595  (-0.014325  0.019754  0.000181)
 63:   1001.19   0.001852    9.36  0.000577  ( 0.009744 -0.006475  0.020984)
 64:   1010.23   0.000064    0.32  0.000020  (-0.000846  0.002950  0.003228)
 65:   1013.63   0.000071    0.36  0.000022  ( 0.003526 -0.003003  0.000711)
 66:   1041.06   0.000238    1.20  0.000071  ( 0.008275 -0.001643 -0.000390)
 67:   1082.60   0.002309   11.67  0.000666  (-0.022153 -0.000434 -0.013212)
 68:   1108.87   0.043233  218.48  0.012167  (-0.052780  0.096744  0.004665)
 69:   1113.53   0.000989    5.00  0.000277  (-0.012665  0.006852 -0.008361)
 70:   1128.46   0.016079   81.26  0.004447  ( 0.038563 -0.054394  0.000822)
 71:   1131.93   0.001890    9.55  0.000521  ( 0.014690 -0.017467  0.000455)
 72:   1153.49   0.018461   93.29  0.004994  (-0.037728  0.058571 -0.011845)
 73:   1179.03   0.000068    0.34  0.000018  ( 0.003210  0.002751  0.000024)
 74:   1187.36   0.001240    6.27  0.000326  ( 0.012520 -0.012962  0.001048)
 75:   1201.98   0.005563   28.11  0.001444  ( 0.014046 -0.034979  0.004846)
 76:   1211.24   0.002672   13.50  0.000688  ( 0.018849  0.018165 -0.001808)
 77:   1240.84   0.003376   17.06  0.000849  ( 0.007377  0.027800  0.004659)
 78:   1251.97   0.006395   32.32  0.001594  ( 0.011230 -0.037565 -0.007528)
 79:   1264.02   0.047252  238.79  0.011666  (-0.055609  0.091453 -0.014476)
 80:   1267.90   0.017245   87.15  0.004244  (-0.033649  0.055531 -0.005329)
 81:   1276.54   0.005455   27.57  0.001334  ( 0.024192 -0.026984  0.004493)
 82:   1282.70   0.000782    3.95  0.000190  ( 0.012844  0.003988  0.003073)
 83:   1325.58   0.018052   91.23  0.004250  (-0.033978  0.055608  0.001724)
 84:   1330.25   0.003393   17.14  0.000796  (-0.014356  0.024031 -0.003507)
 85:   1341.84   0.000278    1.40  0.000065  (-0.006238 -0.002220  0.004562)
 86:   1370.44   0.000156    0.79  0.000036  (-0.004434  0.003954 -0.000585)
 87:   1383.00   0.009517   48.10  0.002147  (-0.040526  0.020161 -0.009929)
 88:   1394.23   0.043288  218.76  0.009689  ( 0.062214 -0.075781  0.008698)
 89:   1405.26   0.001429    7.22  0.000317  (-0.008038  0.015778 -0.001933)
 90:   1417.89   0.007274   36.76  0.001601  ( 0.027290 -0.029012 -0.003818)
 91:   1425.01   0.017030   86.06  0.003729  (-0.024477  0.055904 -0.002255)
 92:   1434.57   0.011994   60.61  0.002609  (-0.027822  0.042784  0.002132)
 93:   1441.87   0.000977    4.94  0.000211  ( 0.008430 -0.011753  0.001474)
 94:   1451.66   0.001578    7.98  0.000339  (-0.011590 -0.006817  0.012590)
 95:   1455.59   0.003568   18.03  0.000765  (-0.007822  0.022386  0.014233)
 96:   1461.02   0.018060   91.27  0.003857  (-0.035087  0.048395 -0.016860)
 97:   1466.29   0.006627   33.49  0.001410  ( 0.026700 -0.025550  0.006693)
 98:   1484.44   0.008541   43.16  0.001796  ( 0.014978 -0.039569  0.002346)
 99:   1502.29   0.002526   12.76  0.000525  (-0.015918  0.016076 -0.003586)
100:   1507.54   0.007106   35.91  0.001471  ( 0.034540 -0.016535  0.002106)
101:   1534.83   0.001025    5.18  0.000208  ( 0.013218 -0.005807 -0.000072)
102:   1547.31   0.007837   39.61  0.001581  ( 0.015180 -0.036297  0.005716)
103:   1572.27   0.008590   43.41  0.001705  ( 0.028931 -0.029362  0.002398)
104:   1620.07   0.001086    5.49  0.000209  ( 0.005021 -0.013527  0.001010)
105:   1634.63   0.152415  770.24  0.029097  (-0.098090  0.138749 -0.014981)
106:   1654.86   0.003491   17.64  0.000658  (-0.010183 -0.022458  0.007093)
107:   1661.06   0.044886  226.83  0.008433  ( 0.048466 -0.077477  0.009005)
108:   1672.15   0.012392   62.62  0.002313  ( 0.019609 -0.043909  0.000189)
109:   1691.28   0.145626  735.93  0.026870  ( 0.094548 -0.133791  0.005520)
110:   2335.30   0.034369  173.69  0.004593  (-0.042989  0.051847 -0.007516)
111:   2969.96   0.007917   40.01  0.000832  (-0.016218 -0.020761 -0.011740)
112:   2976.47   0.048026  242.70  0.005035  ( 0.048713 -0.046430 -0.022507)
113:   3067.23   0.009292   46.96  0.000945  (-0.003600  0.024909 -0.017662)
114:   3071.62   0.005524   27.92  0.000561  ( 0.008725 -0.009985  0.019632)
115:   3123.74   0.000956    4.83  0.000096  ( 0.003454  0.008434  0.003530)
116:   3125.87   0.005206   26.31  0.000520  (-0.018557  0.012903 -0.002975)
117:   3164.33   0.001205    6.09  0.000119  (-0.009796 -0.003260 -0.003494)
118:   3169.41   0.000177    0.89  0.000017  (-0.001731  0.003707  0.000815)
119:   3172.14   0.000505    2.55  0.000050  ( 0.005998  0.003665 -0.000490)
120:   3172.55   0.002758   13.94  0.000271  (-0.016410  0.001265  0.000596)
121:   3174.17   0.003439   17.38  0.000338  ( 0.017250 -0.006307  0.000897)
122:   3177.71   0.000711    3.59  0.000070  ( 0.005829  0.005943 -0.000705)
123:   3191.64   0.004253   21.50  0.000416  ( 0.005946  0.019286 -0.002930)
124:   3196.80   0.001620    8.19  0.000158  (-0.000495  0.012499 -0.001300)
125:   3197.39   0.001411    7.13  0.000138  (-0.008047 -0.008460  0.001173)
126:   3199.92   0.001921    9.71  0.000187  (-0.006797  0.011359 -0.003475)
127:   3216.14   0.004666   23.58  0.000453  ( 0.020242 -0.006268  0.001923)
128:   3220.02   0.002699   13.64  0.000262  ( 0.015250 -0.005374  0.000356)

--------------------------
THERMOCHEMISTRY AT 298.15K
--------------------------

Temperature         ... 298.15 K
Pressure            ... 1.00 atm
Total Mass          ... 322.41 AMU

Throughout the following assumptions are being made:
  (1) The electronic state is orbitally nondegenerate
  (2) There are no thermally accessible electronically excited states
  (3) Hindered rotations indicated by low frequency modes are not
      treated as such but are treated as vibrations and this may
      cause some error
  (4) All equations used are the standard statistical mechanics
      equations for an ideal gas
  (5) All vibrations are strictly harmonic

freq.      17.84  E(vib)   ...       0.57
freq.      26.64  E(vib)   ...       0.56
freq.      37.31  E(vib)   ...       0.54
freq.      55.50  E(vib)   ...       0.52
freq.      57.38  E(vib)   ...       0.51
freq.      84.12  E(vib)   ...       0.48
freq.      96.69  E(vib)   ...       0.46
freq.     126.89  E(vib)   ...       0.43
freq.     140.26  E(vib)   ...       0.41
freq.     165.31  E(vib)   ...       0.39
freq.     177.74  E(vib)   ...       0.37
freq.     197.30  E(vib)   ...       0.35
freq.     211.37  E(vib)   ...       0.34
freq.     220.79  E(vib)   ...       0.33
freq.     231.96  E(vib)   ...       0.32
freq.     258.28  E(vib)   ...       0.30
freq.     265.52  E(vib)   ...       0.29
freq.     295.58  E(vib)   ...       0.27
freq.     299.50  E(vib)   ...       0.26
freq.     330.45  E(vib)   ...       0.24
freq.     368.24  E(vib)   ...       0.21
freq.     405.97  E(vib)   ...       0.19
freq.     420.89  E(vib)   ...       0.18
freq.     446.73  E(vib)   ...       0.17
freq.     453.66  E(vib)   ...       0.16
freq.     483.57  E(vib)   ...       0.15
freq.     495.67  E(vib)   ...       0.14
freq.     512.13  E(vib)   ...       0.14
freq.     522.89  E(vib)   ...       0.13
freq.     529.21  E(vib)   ...       0.13
freq.     555.76  E(vib)   ...       0.12
freq.     565.51  E(vib)   ...       0.11
freq.     571.45  E(vib)   ...       0.11
freq.     583.34  E(vib)   ...       0.11
freq.     614.45  E(vib)   ...       0.10
freq.     630.01  E(vib)   ...       0.09
freq.     679.37  E(vib)   ...       0.08
freq.     701.95  E(vib)   ...       0.07
freq.     717.52  E(vib)   ...       0.07
freq.     751.65  E(vib)   ...       0.06
freq.     761.26  E(vib)   ...       0.06
freq.     781.09  E(vib)   ...       0.05
freq.     814.42  E(vib)   ...       0.05
freq.     815.77  E(vib)   ...       0.05
freq.     821.43  E(vib)   ...       0.05
freq.     839.17  E(vib)   ...       0.04
freq.     853.07  E(vib)   ...       0.04
freq.     867.79  E(vib)   ...       0.04
freq.     880.56  E(vib)   ...       0.04
freq.     886.67  E(vib)   ...       0.04
freq.     901.99  E(vib)   ...       0.03
freq.     941.65  E(vib)   ...       0.03
freq.     960.23  E(vib)   ...       0.03
freq.     984.08  E(vib)   ...       0.02
freq.     989.18  E(vib)   ...       0.02
freq.     993.46  E(vib)   ...       0.02
freq.     999.57  E(vib)   ...       0.02
freq.    1001.19  E(vib)   ...       0.02
freq.    1010.23  E(vib)   ...       0.02
freq.    1013.63  E(vib)   ...       0.02
freq.    1041.06  E(vib)   ...       0.02
freq.    1082.60  E(vib)   ...       0.02
freq.    1108.87  E(vib)   ...       0.02
freq.    1113.53  E(vib)   ...       0.01
freq.    1128.46  E(vib)   ...       0.01
freq.    1131.93  E(vib)   ...       0.01
freq.    1153.49  E(vib)   ...       0.01
freq.    1179.03  E(vib)   ...       0.01
freq.    1187.36  E(vib)   ...       0.01
freq.    1201.98  E(vib)   ...       0.01
freq.    1211.24  E(vib)   ...       0.01
freq.    1240.84  E(vib)   ...       0.01
freq.    1251.97  E(vib)   ...       0.01
freq.    1264.02  E(vib)   ...       0.01
freq.    1267.90  E(vib)   ...       0.01
freq.    1276.54  E(vib)   ...       0.01
freq.    1282.70  E(vib)   ...       0.01
freq.    1325.58  E(vib)   ...       0.01
freq.    1330.25  E(vib)   ...       0.01
freq.    1341.84  E(vib)   ...       0.01
freq.    1370.44  E(vib)   ...       0.01
freq.    1383.00  E(vib)   ...       0.01
freq.    1394.23  E(vib)   ...       0.00
freq.    1405.26  E(vib)   ...       0.00
freq.    1417.89  E(vib)   ...       0.00
freq.    1425.01  E(vib)   ...       0.00
freq.    1434.57  E(vib)   ...       0.00
freq.    1441.87  E(vib)   ...       0.00
freq.    1451.66  E(vib)   ...       0.00
freq.    1455.59  E(vib)   ...       0.00
freq.    1461.02  E(vib)   ...       0.00
freq.    1466.29  E(vib)   ...       0.00
freq.    1484.44  E(vib)   ...       0.00
freq.    1502.29  E(vib)   ...       0.00
freq.    1507.54  E(vib)   ...       0.00
freq.    1534.83  E(vib)   ...       0.00
freq.    1547.31  E(vib)   ...       0.00
freq.    1572.27  E(vib)   ...       0.00
freq.    1620.07  E(vib)   ...       0.00
freq.    1634.63  E(vib)   ...       0.00
freq.    1654.86  E(vib)   ...       0.00
freq.    1661.06  E(vib)   ...       0.00
freq.    1672.15  E(vib)   ...       0.00
freq.    1691.28  E(vib)   ...       0.00
freq.    2335.30  E(vib)   ...       0.00
freq.    2969.96  E(vib)   ...       0.00
freq.    2976.47  E(vib)   ...       0.00
freq.    3067.23  E(vib)   ...       0.00
freq.    3071.62  E(vib)   ...       0.00
freq.    3123.74  E(vib)   ...       0.00
freq.    3125.87  E(vib)   ...       0.00
freq.    3164.33  E(vib)   ...       0.00
freq.    3169.41  E(vib)   ...       0.00
freq.    3172.14  E(vib)   ...       0.00
freq.    3172.55  E(vib)   ...       0.00
freq.    3174.17  E(vib)   ...       0.00
freq.    3177.71  E(vib)   ...       0.00
freq.    3191.64  E(vib)   ...       0.00
freq.    3196.80  E(vib)   ...       0.00
freq.    3197.39  E(vib)   ...       0.00
freq.    3199.92  E(vib)   ...       0.00
freq.    3216.14  E(vib)   ...       0.00
freq.    3220.02  E(vib)   ...       0.00

------------
INNER ENERGY
------------

The inner energy is: U= E(el) + E(ZPE) + E(vib) + E(rot) + E(trans)
    E(el)   - is the total energy from the electronic structure calculation
              = E(kin-el) + E(nuc-el) + E(el-el) + E(nuc-nuc)
    E(ZPE)  - the the zero temperature vibrational energy from the frequency calculation
    E(vib)  - the the finite temperature correction to E(ZPE) due to population
              of excited vibrational states
    E(rot)  - is the rotational thermal energy
    E(trans)- is the translational thermal energy

Summary of contributions to the inner energy U:
Electronic energy                ...   -995.44856217 Eh
Zero point energy                ...      0.34549771 Eh     216.80 kcal/mol
Thermal vibrational correction   ...      0.01824592 Eh      11.45 kcal/mol
Thermal rotational correction    ...      0.00141627 Eh       0.89 kcal/mol
Thermal translational correction ...      0.00141627 Eh       0.89 kcal/mol
-----------------------------------------------------------------------

Rotational constants in cm-1:     0.023845     0.002887     0.002595

                             ****ORCA TERMINATED NORMALLY****
TOTAL RUN TIME: 0 days 0 hours 53 minutes 17 seconds 785 msec
