                         Program Version 5.0.4 -  RELEASE  -
|  1> ! B3LYP def2-SVP Opt PAL8 FREQ
|  2> #defgrid3 slowconv VeryTightSCF
|  3> *xyz 0 1
|  4>   C   -7.199556    2.891050   -0.273112
|  5>   C   -5.999033    3.503018   -0.275407
|  6>   C   -4.853203    2.821243   -0.179132
|  7>   C   -4.876439    1.486113   -0.076048
|  8>   C   -3.720107    0.816780    0.020158
|  9>   C   -3.718767   -0.516741    0.124185
| 10>   C   -4.857825   -1.237788    0.136850
| 11>   C   -4.861187   -2.595452    0.242589
| 12>   C   -6.060810   -3.208930    0.244307
| 13>   C   -7.206682   -2.527340    0.147367
| 14>   C   -7.183547   -1.192089    0.044378
| 15>   C   -8.339778   -0.522727   -0.051754
| 16>   C   -8.341093    0.810857   -0.155283
| 17>   C   -7.202559    1.532992   -0.167969
| 18>   C   -6.047694    0.823758   -0.069024
| 19>   C   -6.012747   -0.528911    0.037494
| 20>   C   -8.317983    3.650141   -0.373861
| 21>   C   -3.744232   -3.355674    0.345053
| 22>   C   -8.430896    4.987730   -0.481437
| 23>   C   -3.645064   -4.692242    0.453548
| 24>   C   -9.613115    5.559930   -0.570005
| 25>   N   -2.521339   -5.271980    0.542606
| 26>   N  -10.652609    6.064633   -0.647863
| 27>   H   -5.876895    4.593338   -0.355517
| 28>   H   -3.899686    3.377827   -0.186299
| 29>   H   -2.753181    1.350304    0.015491
| 30>   H   -2.712613   -0.952728    0.196564
| 31>   H   -6.180041   -4.299738    0.324725
| 32>   H   -8.159953   -3.084282    0.154197
| 33>   H   -9.306614   -1.056471   -0.047179
| 34>   H   -9.347856    1.245439   -0.227368
| 35>   H   -9.306638    3.167492   -0.373525
| 36>   H   -2.753315   -2.878451    0.346032
| 37>   H   -7.574500    5.675804   -0.502358
| 38>   H   -4.475498   -5.408952    0.477532
| 39>   H   -2.462929   -6.316841    0.626886
| 40>   H   -1.634205   -4.711112    0.533179
| 41> **                         ****END OF INPUT****
 Total Charge           Charge          ....    0
 Multiplicity           Mult            ....    1
 Number of Electrons    NEL             ....  154
FINAL SINGLE POINT ENERGY      -916.799159054519
FINAL SINGLE POINT ENERGY      -916.895327400807
FINAL SINGLE POINT ENERGY      -916.938998950978
FINAL SINGLE POINT ENERGY      -916.945754575466
FINAL SINGLE POINT ENERGY      -916.946391347114
FINAL SINGLE POINT ENERGY      -916.946570934571
FINAL SINGLE POINT ENERGY      -916.946604863965
                    ***********************HURRAY********************

CARTESIAN COORDINATES (ANGSTROEM)
---------------------------------
  C     -7.228982    3.036029   -0.277960
  C     -5.972786    3.680575   -0.277902
  C     -4.786362    2.977780   -0.177035
  C     -4.787438    1.571841   -0.069510
  C     -3.573387    0.822703    0.032386
  C     -3.582866   -0.539693    0.134815
  C     -4.804009   -1.295394    0.147072
  C     -4.824138   -2.726834    0.253867
  C     -6.087866   -3.363979    0.256340
  C     -7.274579   -2.659416    0.161335
  C     -7.283456   -1.255001    0.054658
  C     -8.496149   -0.506473   -0.045897
  C     -8.493540    0.855952   -0.151446
  C     -7.268445    1.607197   -0.165709
  C     -6.033981    0.872168   -0.062459
  C     -6.036583   -0.560608    0.046824
  C     -8.457296    3.815273   -0.394704
  C     -3.590814   -3.498729    0.356104
  C     -8.567885    5.163771   -0.514902
  C     -3.494606   -4.851694    0.461988
  C     -9.830733    5.815426   -0.627826
  N     -2.334995   -5.563795    0.556666
  N    -10.853578    6.362725   -0.721048
  H     -5.928726    4.768210   -0.360620
  H     -3.831773    3.510692   -0.181387
  H     -2.624151    1.365553    0.026115
  H     -2.627120   -1.057524    0.209182
  H     -6.141294   -4.451568    0.335675
  H     -8.227241   -3.196917    0.168210
  H     -9.445614   -1.049607   -0.037410
  H     -9.450715    1.370937   -0.225379
  H     -9.397432    3.261837   -0.388677
  H     -2.647046   -2.949559    0.347841
  H     -7.694379    5.821454   -0.533768
  H     -4.389807   -5.480207    0.478173
  H     -2.346106   -6.569613    0.632952
  H     -1.434309   -5.103511    0.553438

 Multiplicity           Mult            ....    1
 Number of Electrons    NEL             ....  154
 Basis Dimension        Dim             ....  392

ORBITAL ENERGIES
----------------

  NO   OCC          E(Eh)            E(eV)
   0   2.0000     -14.363769      -390.8580
   1   2.0000     -14.308505      -389.3542
   2   2.0000     -10.243157      -278.7305
   3   2.0000     -10.217337      -278.0279
   4   2.0000     -10.215529      -277.9787
   5   2.0000     -10.210746      -277.8485
   6   2.0000     -10.207968      -277.7729
   7   2.0000     -10.207727      -277.7664
   8   2.0000     -10.204424      -277.6765
   9   2.0000     -10.201913      -277.6082
  10   2.0000     -10.201591      -277.5994
  11   2.0000     -10.199547      -277.5438
  12   2.0000     -10.199062      -277.5306
  13   2.0000     -10.196648      -277.4649
  14   2.0000     -10.195487      -277.4333
  15   2.0000     -10.194301      -277.4010
  16   2.0000     -10.193801      -277.3874
  17   2.0000     -10.193115      -277.3688
  18   2.0000     -10.192787      -277.3598
  19   2.0000     -10.192492      -277.3518
  20   2.0000     -10.190995      -277.3111
  21   2.0000     -10.190243      -277.2906
  22   2.0000     -10.181294      -277.0471
  23   2.0000      -0.926525       -25.2120
  24   2.0000      -0.886944       -24.1350
  25   2.0000      -0.878239       -23.8981
  26   2.0000      -0.851665       -23.1750
  27   2.0000      -0.827132       -22.5074
  28   2.0000      -0.812750       -22.1160
  29   2.0000      -0.784647       -21.3513
  30   2.0000      -0.771993       -21.0070
  31   2.0000      -0.744868       -20.2689
  32   2.0000      -0.736833       -20.0502
  33   2.0000      -0.723445       -19.6860
  34   2.0000      -0.700907       -19.0727
  35   2.0000      -0.651927       -17.7398
  36   2.0000      -0.635662       -17.2973
  37   2.0000      -0.628170       -17.0934
  38   2.0000      -0.613814       -16.7027
  39   2.0000      -0.599521       -16.3138
  40   2.0000      -0.586746       -15.9662
  41   2.0000      -0.554577       -15.0908
  42   2.0000      -0.545533       -14.8447
  43   2.0000      -0.528046       -14.3689
  44   2.0000      -0.520515       -14.1639
  45   2.0000      -0.509615       -13.8673
  46   2.0000      -0.503970       -13.7137
  47   2.0000      -0.492050       -13.3894
  48   2.0000      -0.476707       -12.9718
  49   2.0000      -0.465880       -12.6772
  50   2.0000      -0.448541       -12.2054
  51   2.0000      -0.443795       -12.0763
  52   2.0000      -0.437775       -11.9125
  53   2.0000      -0.421578       -11.4717
  54   2.0000      -0.417096       -11.3498
  55   2.0000      -0.416400       -11.3308
  56   2.0000      -0.404368       -11.0034
  57   2.0000      -0.399671       -10.8756
  58   2.0000      -0.394176       -10.7261
  59   2.0000      -0.385113       -10.4795
  60   2.0000      -0.384800       -10.4709
  61   2.0000      -0.378572       -10.3015
  62   2.0000      -0.371056       -10.0969
  63   2.0000      -0.358135        -9.7454
  64   2.0000      -0.355363        -9.6699
  65   2.0000      -0.347037        -9.4434
  66   2.0000      -0.342320        -9.3150
  67   2.0000      -0.335475        -9.1287
  68   2.0000      -0.322138        -8.7658
  69   2.0000      -0.318071        -8.6551
  70   2.0000      -0.316841        -8.6217
  71   2.0000      -0.291001        -7.9185
  72   2.0000      -0.271277        -7.3818
  73   2.0000      -0.259843        -7.0707
  74   2.0000      -0.237042        -6.4502
  75   2.0000      -0.224270        -6.1027
  76   2.0000      -0.181952        -4.9512
  77   0.0000      -0.082656        -2.2492
  78   0.0000      -0.042578        -1.1586
  79   0.0000      -0.032925        -0.8959
  80   0.0000      -0.011289        -0.3072
  81   0.0000       0.014318         0.3896

MULLIKEN ATOMIC CHARGES
-----------------------
   0 C :    0.058610
   1 C :   -0.022917
   2 C :   -0.033463
   3 C :    0.072981
   4 C :   -0.016440
   5 C :   -0.030618
   6 C :    0.052069
   7 C :    0.104845
   8 C :   -0.049546
   9 C :   -0.023245
  10 C :    0.058365
  11 C :   -0.007347
  12 C :   -0.048443
  13 C :    0.086240
  14 C :    0.052866
  15 C :    0.068328
  16 C :    0.023280
  17 C :   -0.048560
  18 C :   -0.126694
  19 C :    0.038209
  20 C :   -0.099688
  21 N :   -0.089946
  22 N :    0.030362
  23 H :   -0.028995
  24 H :   -0.033654
  25 H :   -0.035920
  26 H :   -0.038767
  27 H :   -0.040286
  28 H :   -0.035169
  29 H :   -0.032501
  30 H :   -0.033236
  31 H :    0.002008
  32 H :   -0.049928
  33 H :    0.032820
  34 H :   -0.000504
  35 H :    0.125951
  36 H :    0.118936
Sum of atomic charges:    0.0000000

LOEWDIN ATOMIC CHARGES
----------------------
   0 C :   -0.041814
   1 C :   -0.006641
   2 C :   -0.025739
   3 C :   -0.007007
   4 C :   -0.024637
   5 C :   -0.009096
   6 C :   -0.024965
   7 C :    0.003226
   8 C :   -0.032093
   9 C :   -0.010549
  10 C :   -0.032289
  11 C :   -0.006244
  12 C :   -0.032240
  13 C :    0.002755
  14 C :    0.001667
  15 C :    0.005367
  16 C :    0.033421
  17 C :   -0.121393
  18 C :   -0.080945
  19 C :    0.043917
  20 C :   -0.037830
  21 N :    0.002234
  22 N :   -0.083796
  23 H :    0.026878
  24 H :    0.027099
  25 H :    0.026590
  26 H :    0.024673
  27 H :    0.020978
  28 H :    0.026830
  29 H :    0.028368
  30 H :    0.026037
  31 H :    0.035587
  32 H :    0.017229
  33 H :    0.042134
  34 H :    0.024691
  35 H :    0.079507
  36 H :    0.078091

  Mayer bond orders larger than 0.100000
B(  0-C ,  1-C ) :   1.3041 B(  0-C , 13-C ) :   1.2446 B(  0-C , 16-C ) :   1.1280
B(  1-C ,  2-C ) :   1.4044 B(  1-C , 23-H ) :   0.9757 B(  2-C ,  3-C ) :   1.2622
B(  2-C , 24-H ) :   0.9877 B(  3-C ,  4-C ) :   1.1683 B(  3-C , 14-C ) :   1.2420
B(  4-C ,  5-C ) :   1.5305 B(  4-C , 25-H ) :   0.9835 B(  5-C ,  6-C ) :   1.1740
B(  5-C , 26-H ) :   0.9778 B(  6-C ,  7-C ) :   1.2461 B(  6-C , 15-C ) :   1.2339
B(  7-C ,  8-C ) :   1.2934 B(  7-C , 17-C ) :   1.1560 B(  8-C ,  9-C ) :   1.4115
B(  8-C , 27-H ) :   0.9740 B(  9-C , 10-C ) :   1.2625 B(  9-C , 28-H ) :   0.9849
B( 10-C , 11-C ) :   1.1676 B( 10-C , 15-C ) :   1.2444 B( 11-C , 12-C ) :   1.5316
B( 11-C , 29-H ) :   0.9827 B( 12-C , 13-C ) :   1.1738 B( 12-C , 30-H ) :   0.9780
B( 13-C , 14-C ) :   1.2336 B( 14-C , 15-C ) :   1.2272 B( 16-C , 18-C ) :   1.7344
B( 16-C , 31-H ) :   0.9602 B( 17-C , 19-C ) :   1.6228 B( 17-C , 32-H ) :   0.9550
B( 18-C , 20-C ) :   1.1101 B( 18-C , 33-H ) :   0.9436 B( 19-C , 21-N ) :   1.2737
B( 19-C , 34-H ) :   0.9511 B( 20-C , 22-N ) :   2.9611 B( 21-N , 35-H ) :   0.9536
B( 21-N , 36-H ) :   0.9567

FINAL SINGLE POINT ENERGY      -916.946608585186

DIPOLE MOMENT
-------------
                                X             Y             Z
Electronic contribution:     -7.20471      10.54033      -1.08641
Nuclear contribution   :     10.11719     -14.01899       1.47810
                        -----------------------------------------
Total Dipole Moment    :      2.91248      -3.47866       0.39169
                        -----------------------------------------
Magnitude (a.u.)       :      4.55379
Magnitude (Debye)      :     11.57481

VIBRATIONAL FREQUENCIES
-----------------------

Scaling factor for frequencies =  1.000000000  (already applied!)

   0:         0.00 cm**-1
   1:         0.00 cm**-1
   2:         0.00 cm**-1
   3:         0.00 cm**-1
   4:         0.00 cm**-1
   5:         0.00 cm**-1
   6:      -235.77 cm**-1 ***imaginary mode***
   7:       -63.41 cm**-1 ***imaginary mode***
   8:       -43.98 cm**-1 ***imaginary mode***
   9:        25.70 cm**-1
  10:        62.28 cm**-1
  11:        72.19 cm**-1
  12:        99.46 cm**-1
  13:       122.83 cm**-1
  14:       141.75 cm**-1
  15:       189.14 cm**-1
  16:       219.56 cm**-1
  17:       220.84 cm**-1
  18:       256.16 cm**-1
  19:       260.61 cm**-1
  20:       284.06 cm**-1
  21:       315.23 cm**-1
  22:       348.12 cm**-1
  23:       367.60 cm**-1
  24:       420.61 cm**-1
  25:       437.59 cm**-1
  26:       447.49 cm**-1
  27:       490.80 cm**-1
  28:       495.86 cm**-1
  29:       508.37 cm**-1
  30:       512.47 cm**-1
  31:       525.39 cm**-1
  32:       529.57 cm**-1
  33:       562.33 cm**-1
  34:       563.66 cm**-1
  35:       583.89 cm**-1
  36:       620.13 cm**-1
  37:       633.26 cm**-1
  38:       679.36 cm**-1
  39:       702.76 cm**-1
  40:       716.71 cm**-1
  41:       752.82 cm**-1
  42:       762.83 cm**-1
  43:       779.94 cm**-1
  44:       812.46 cm**-1
  45:       813.58 cm**-1
  46:       825.83 cm**-1
  47:       843.37 cm**-1
  48:       852.93 cm**-1
  49:       870.44 cm**-1
  50:       882.00 cm**-1
  51:       889.40 cm**-1
  52:       944.50 cm**-1
  53:       974.82 cm**-1
  54:       978.00 cm**-1
  55:       983.96 cm**-1
  56:       989.90 cm**-1
  57:       999.96 cm**-1
  58:      1000.36 cm**-1
  59:      1009.42 cm**-1
  60:      1013.78 cm**-1
  61:      1037.62 cm**-1
  62:      1056.35 cm**-1
  63:      1119.47 cm**-1
  64:      1133.59 cm**-1
  65:      1181.89 cm**-1
  66:      1189.12 cm**-1
  67:      1204.41 cm**-1
  68:      1211.56 cm**-1
  69:      1242.80 cm**-1
  70:      1260.68 cm**-1
  71:      1265.80 cm**-1
  72:      1272.11 cm**-1
  73:      1281.00 cm**-1
  74:      1296.58 cm**-1
  75:      1332.23 cm**-1
  76:      1333.79 cm**-1
  77:      1335.66 cm**-1
  78:      1372.25 cm**-1
  79:      1385.34 cm**-1
  80:      1404.92 cm**-1
  81:      1412.31 cm**-1
  82:      1425.19 cm**-1
  83:      1444.18 cm**-1
  84:      1468.39 cm**-1
  85:      1506.69 cm**-1
  86:      1535.64 cm**-1
  87:      1547.58 cm**-1
  88:      1573.69 cm**-1
  89:      1609.86 cm**-1
  90:      1622.52 cm**-1
  91:      1635.61 cm**-1
  92:      1656.53 cm**-1
  93:      1662.07 cm**-1
  94:      1672.68 cm**-1
  95:      1711.17 cm**-1
  96:      2334.89 cm**-1
  97:      3167.56 cm**-1
  98:      3171.42 cm**-1
  99:      3171.64 cm**-1
 100:      3174.06 cm**-1
 101:      3176.04 cm**-1
 102:      3178.32 cm**-1
 103:      3181.71 cm**-1
 104:      3193.97 cm**-1
 105:      3197.93 cm**-1
 106:      3200.28 cm**-1
 107:      3218.65 cm**-1
 108:      3221.87 cm**-1
 109:      3607.79 cm**-1
 110:      3736.54 cm**-1

IR SPECTRUM
-----------

 Mode   freq       eps      Int      T**2         TX        TY        TZ
       cm**-1   L/(mol*cm) km/mol    a.u.
----------------------------------------------------------------------------
  9:     25.70   0.000001    0.01  0.000017  (-0.000287  0.000781  0.004047)
 10:     62.28   0.000862    4.35  0.004318  (-0.002464  0.005364  0.065442)
 11:     72.19   0.000225    1.14  0.000974  ( 0.016347  0.026479 -0.002407)
 12:     99.46   0.000010    0.05  0.000031  ( 0.000038 -0.001066 -0.005440)
 13:    122.83   0.000980    4.95  0.002489  ( 0.025700  0.042695 -0.002392)
 14:    141.75   0.000037    0.19  0.000081  (-0.000348 -0.000721 -0.008967)
 15:    189.14   0.002636   13.32  0.004348  (-0.002496  0.005241  0.065686)
 16:    219.56   0.000630    3.19  0.000896  ( 0.002417 -0.001259 -0.029808)
 17:    220.84   0.000148    0.75  0.000209  (-0.010867 -0.009062 -0.002998)
 18:    256.16   0.000169    0.86  0.000206  ( 0.013270  0.005511 -0.000135)
 19:    260.61   0.000005    0.03  0.000006  ( 0.000754 -0.000285 -0.002346)
 20:    284.06   0.000208    1.05  0.000228  ( 0.000260 -0.000916 -0.015068)
 21:    315.23   0.001079    5.45  0.001068  (-0.019389  0.026142 -0.002925)
 22:    348.12   0.000234    1.18  0.000210  ( 0.012068 -0.007944  0.001137)
 23:    367.60   0.000669    3.38  0.000568  (-0.001287  0.002382  0.023685)
 24:    420.61   0.002581   13.04  0.001915  ( 0.024829 -0.035822  0.003871)
 25:    437.59   0.000333    1.68  0.000238  (-0.011775  0.009850 -0.001361)
 26:    447.49   0.000001    0.00  0.000000  (-0.000043 -0.000098 -0.000641)
 27:    490.80   0.000011    0.06  0.000007  (-0.000022  0.000089 -0.002702)
 28:    495.86   0.000926    4.68  0.000583  (-0.001027  0.001942  0.024039)
 29:    508.37   0.000040    0.20  0.000025  ( 0.002118 -0.004469  0.000559)
 30:    512.47   0.000718    3.63  0.000438  ( 0.005469 -0.020094  0.001959)
 31:    525.39   0.000009    0.05  0.000005  (-0.000219 -0.000251  0.002311)
 32:    529.57   0.001115    5.63  0.000657  ( 0.001513 -0.025515  0.001922)
 33:    562.33   0.000161    0.81  0.000089  ( 0.004429 -0.008304  0.000835)
 34:    563.66   0.000012    0.06  0.000007  ( 0.000238 -0.000469 -0.002507)
 35:    583.89   0.000235    1.19  0.000126  (-0.000471  0.001027  0.011160)
 36:    620.13   0.002055   10.38  0.001034  (-0.012731  0.029402 -0.002723)
 37:    633.26   0.000399    2.02  0.000197  ( 0.007056 -0.012050  0.001240)
 38:    679.36   0.000056    0.28  0.000026  (-0.000077  0.000296  0.005063)
 39:    702.76   0.000586    2.96  0.000260  ( 0.009252 -0.013147  0.001308)
 40:    716.71   0.000954    4.82  0.000415  (-0.000669  0.001416  0.020319)
 41:    752.82   0.002725   13.77  0.001130  ( 0.001238 -0.002748 -0.033474)
 42:    762.83   0.000266    1.34  0.000109  ( 0.006454 -0.008141  0.000903)
 43:    779.94   0.000085    0.43  0.000034  ( 0.003485 -0.004667  0.000514)
 44:    812.46   0.000140    0.71  0.000054  (-0.000646  0.001181 -0.007210)
 45:    813.58   0.005638   28.49  0.002163  (-0.020258  0.041699 -0.003673)
 46:    825.83   0.000596    3.01  0.000225  (-0.000641  0.001351  0.014932)
 47:    843.37   0.002358   11.92  0.000873  ( 0.001355 -0.002754 -0.029380)
 48:    852.93   0.000065    0.33  0.000024  ( 0.004831  0.000664  0.000108)
 49:    870.44   0.009416   47.58  0.003376  ( 0.001777 -0.004010 -0.057935)
 50:    882.00   0.000315    1.59  0.000111  (-0.000662  0.001263  0.010461)
 51:    889.40   0.002443   12.35  0.000857  (-0.001431  0.002792  0.029109)
 52:    944.50   0.000965    4.87  0.000319  ( 0.000876 -0.001563 -0.017762)
 53:    974.82   0.004197   21.21  0.001344  ( 0.001184 -0.002610 -0.036542)
 54:    978.00   0.007511   37.96  0.002397  (-0.022913  0.043038 -0.004399)
 55:    983.96   0.004284   21.65  0.001359  (-0.001664  0.003338  0.036670)
 56:    989.90   0.000003    0.02  0.000001  ( 0.000041 -0.000082  0.001035)
 57:    999.96   0.001002    5.06  0.000313  (-0.000991  0.001010 -0.017625)
 58:   1000.36   0.001158    5.85  0.000361  ( 0.010942 -0.015510 -0.000988)
 59:   1009.42   0.000181    0.91  0.000056  (-0.000317  0.000598  0.007443)
 60:   1013.78   0.000018    0.09  0.000005  (-0.000074  0.000122  0.002319)
 61:   1037.62   0.000449    2.27  0.000135  (-0.008086  0.008294 -0.000945)
 62:   1056.35   0.004753   24.02  0.001404  ( 0.009730 -0.036056  0.003071)
 63:   1119.47   0.000217    1.09  0.000060  ( 0.001710 -0.007561  0.000544)
 64:   1133.59   0.000104    0.53  0.000029  ( 0.004000 -0.003531  0.000385)
 65:   1181.89   0.000041    0.21  0.000011  ( 0.000413 -0.003240  0.000222)
 66:   1189.12   0.000168    0.85  0.000044  ( 0.005177 -0.004120  0.000459)
 67:   1204.41   0.002212   11.18  0.000573  ( 0.005308 -0.023247  0.002098)
 68:   1211.56   0.003786   19.13  0.000975  ( 0.031079 -0.002723  0.001392)
 69:   1242.80   0.010474   52.93  0.002630  ( 0.033682 -0.038460  0.004036)
 70:   1260.68   0.104640  528.81  0.025902  ( 0.078915 -0.139584  0.013815)
 71:   1265.80   0.001145    5.79  0.000282  (-0.006357  0.015474 -0.001552)
 72:   1272.11   0.000024    0.12  0.000006  (-0.001099  0.002148 -0.000384)
 73:   1281.00   0.002714   13.71  0.000661  ( 0.020419 -0.015493  0.002018)
 74:   1296.58   0.010461   52.86  0.002518  (-0.033914  0.036757 -0.004060)
 75:   1332.23   0.023384  118.17  0.005478  ( 0.033026 -0.065935  0.006275)
 76:   1333.79   0.000704    3.56  0.000165  (-0.012174  0.003948 -0.000982)
 77:   1335.66   0.018034   91.13  0.004213  (-0.033999  0.055033 -0.005365)
 78:   1372.25   0.000042    0.21  0.000010  (-0.001544 -0.002666  0.000116)
 79:   1385.34   0.003368   17.02  0.000759  ( 0.025170 -0.011023  0.001901)
 80:   1404.92   0.001036    5.23  0.000230  ( 0.006910 -0.013441  0.001266)
 81:   1412.31   0.002976   15.04  0.000658  ( 0.011242 -0.022944  0.002193)
 82:   1425.19   0.003245   16.40  0.000710  ( 0.002061 -0.026484  0.002191)
 83:   1444.18   0.002104   10.63  0.000455  (-0.011276  0.018002 -0.001822)
 84:   1468.39   0.001306    6.60  0.000278  (-0.013839  0.009203 -0.001154)
 85:   1506.69   0.000573    2.90  0.000119  ( 0.009541  0.005262 -0.000049)
 86:   1535.64   0.001946    9.83  0.000395  (-0.017472  0.009406 -0.001301)
 87:   1547.58   0.013202   66.72  0.002662  (-0.023591  0.045671 -0.004452)
 88:   1573.69   0.006843   34.58  0.001357  ( 0.024282 -0.027533  0.003057)
 89:   1609.86   0.002224   11.24  0.000431  (-0.020549 -0.002948 -0.000464)
 90:   1622.52   0.000188    0.95  0.000036  (-0.004984  0.003327 -0.000441)
 91:   1635.61   0.151790  767.08  0.028960  (-0.094923  0.140492 -0.014566)
 92:   1656.53   0.002664   13.46  0.000502  ( 0.012919  0.018256 -0.001302)
 93:   1662.07   0.033798  170.80  0.006346  ( 0.041799 -0.067458  0.006927)
 94:   1672.68   0.006989   35.32  0.001304  ( 0.011198 -0.034211  0.002834)
 95:   1711.17   0.184446  932.12  0.033637  (-0.103173  0.150870 -0.015194)
 96:   2334.89   0.034290  173.29  0.004583  (-0.042663  0.052209 -0.006086)
 97:   3167.56   0.000371    1.88  0.000037  ( 0.005888 -0.001340  0.000302)
 98:   3171.42   0.000186    0.94  0.000018  (-0.003882 -0.001807  0.000026)
 99:   3171.64   0.003547   17.93  0.000349  (-0.018651 -0.000895 -0.000591)
100:   3174.06   0.005547   28.03  0.000545  (-0.021824  0.008175 -0.001515)
101:   3176.04   0.000078    0.40  0.000008  (-0.001431  0.002371 -0.000175)
102:   3178.32   0.000640    3.23  0.000063  (-0.002974 -0.007330  0.000489)
103:   3181.71   0.002067   10.44  0.000203  ( 0.009877 -0.010193  0.001121)
104:   3193.97   0.005490   27.74  0.000536  ( 0.007037  0.022019 -0.001411)
105:   3197.93   0.002421   12.24  0.000236  (-0.006674 -0.013828  0.000739)
106:   3200.28   0.000381    1.93  0.000037  ( 0.003364 -0.005052  0.000571)
107:   3218.65   0.003686   18.63  0.000357  ( 0.018677 -0.002786  0.000881)
108:   3221.87   0.002790   14.10  0.000270  (-0.015357  0.005772 -0.001012)
109:   3607.79   0.057390  290.02  0.004964  ( 0.043769 -0.054908  0.005782)
110:   3736.54   0.015108   76.35  0.001262  (-0.003650 -0.035238  0.002585)

--------------------------
THERMOCHEMISTRY AT 298.15K
--------------------------

Temperature         ... 298.15 K
Pressure            ... 1.00 atm
Total Mass          ... 294.36 AMU

Throughout the following assumptions are being made:
  (1) The electronic state is orbitally nondegenerate
  (2) There are no thermally accessible electronically excited states
  (3) Hindered rotations indicated by low frequency modes are not
      treated as such but are treated as vibrations and this may
      cause some error
  (4) All equations used are the standard statistical mechanics
      equations for an ideal gas
  (5) All vibrations are strictly harmonic

freq.      25.70  E(vib)   ...       0.56
freq.      62.28  E(vib)   ...       0.51
freq.      72.19  E(vib)   ...       0.50
freq.      99.46  E(vib)   ...       0.46
freq.     122.83  E(vib)   ...       0.43
freq.     141.75  E(vib)   ...       0.41
freq.     189.14  E(vib)   ...       0.36
freq.     219.56  E(vib)   ...       0.33
freq.     220.84  E(vib)   ...       0.33
freq.     256.16  E(vib)   ...       0.30
freq.     260.61  E(vib)   ...       0.30
freq.     284.06  E(vib)   ...       0.28
freq.     315.23  E(vib)   ...       0.25
freq.     348.12  E(vib)   ...       0.23
freq.     367.60  E(vib)   ...       0.21
freq.     420.61  E(vib)   ...       0.18
freq.     437.59  E(vib)   ...       0.17
freq.     447.49  E(vib)   ...       0.17
freq.     490.80  E(vib)   ...       0.14
freq.     495.86  E(vib)   ...       0.14
freq.     508.37  E(vib)   ...       0.14
freq.     512.47  E(vib)   ...       0.13
freq.     525.39  E(vib)   ...       0.13
freq.     529.57  E(vib)   ...       0.13
freq.     562.33  E(vib)   ...       0.11
freq.     563.66  E(vib)   ...       0.11
freq.     583.89  E(vib)   ...       0.11
freq.     620.13  E(vib)   ...       0.09
freq.     633.26  E(vib)   ...       0.09
freq.     679.36  E(vib)   ...       0.08
freq.     702.76  E(vib)   ...       0.07
freq.     716.71  E(vib)   ...       0.07
freq.     752.82  E(vib)   ...       0.06
freq.     762.83  E(vib)   ...       0.06
freq.     779.94  E(vib)   ...       0.05
freq.     812.46  E(vib)   ...       0.05
freq.     813.58  E(vib)   ...       0.05
freq.     825.83  E(vib)   ...       0.04
freq.     843.37  E(vib)   ...       0.04
freq.     852.93  E(vib)   ...       0.04
freq.     870.44  E(vib)   ...       0.04
freq.     882.00  E(vib)   ...       0.04
freq.     889.40  E(vib)   ...       0.04
freq.     944.50  E(vib)   ...       0.03
freq.     974.82  E(vib)   ...       0.03
freq.     978.00  E(vib)   ...       0.03
freq.     983.96  E(vib)   ...       0.02
freq.     989.90  E(vib)   ...       0.02
freq.     999.96  E(vib)   ...       0.02
freq.    1000.36  E(vib)   ...       0.02
freq.    1009.42  E(vib)   ...       0.02
freq.    1013.78  E(vib)   ...       0.02
freq.    1037.62  E(vib)   ...       0.02
freq.    1056.35  E(vib)   ...       0.02
freq.    1119.47  E(vib)   ...       0.01
freq.    1133.59  E(vib)   ...       0.01
freq.    1181.89  E(vib)   ...       0.01
freq.    1189.12  E(vib)   ...       0.01
freq.    1204.41  E(vib)   ...       0.01
freq.    1211.56  E(vib)   ...       0.01
freq.    1242.80  E(vib)   ...       0.01
freq.    1260.68  E(vib)   ...       0.01
freq.    1265.80  E(vib)   ...       0.01
freq.    1272.11  E(vib)   ...       0.01
freq.    1281.00  E(vib)   ...       0.01
freq.    1296.58  E(vib)   ...       0.01
freq.    1332.23  E(vib)   ...       0.01
freq.    1333.79  E(vib)   ...       0.01
freq.    1335.66  E(vib)   ...       0.01
freq.    1372.25  E(vib)   ...       0.01
freq.    1385.34  E(vib)   ...       0.00
freq.    1404.92  E(vib)   ...       0.00
freq.    1412.31  E(vib)   ...       0.00
freq.    1425.19  E(vib)   ...       0.00
freq.    1444.18  E(vib)   ...       0.00
freq.    1468.39  E(vib)   ...       0.00
freq.    1506.69  E(vib)   ...       0.00
freq.    1535.64  E(vib)   ...       0.00
freq.    1547.58  E(vib)   ...       0.00
freq.    1573.69  E(vib)   ...       0.00
freq.    1609.86  E(vib)   ...       0.00
freq.    1622.52  E(vib)   ...       0.00
freq.    1635.61  E(vib)   ...       0.00
freq.    1656.53  E(vib)   ...       0.00
freq.    1662.07  E(vib)   ...       0.00
freq.    1672.68  E(vib)   ...       0.00
freq.    1711.17  E(vib)   ...       0.00
freq.    2334.89  E(vib)   ...       0.00
freq.    3167.56  E(vib)   ...       0.00
freq.    3171.42  E(vib)   ...       0.00
freq.    3171.64  E(vib)   ...       0.00
freq.    3174.06  E(vib)   ...       0.00
freq.    3176.04  E(vib)   ...       0.00
freq.    3178.32  E(vib)   ...       0.00
freq.    3181.71  E(vib)   ...       0.00
freq.    3193.97  E(vib)   ...       0.00
freq.    3197.93  E(vib)   ...       0.00
freq.    3200.28  E(vib)   ...       0.00
freq.    3218.65  E(vib)   ...       0.00
freq.    3221.87  E(vib)   ...       0.00
freq.    3607.79  E(vib)   ...       0.00
freq.    3736.54  E(vib)   ...       0.00

------------
INNER ENERGY
------------

The inner energy is: U= E(el) + E(ZPE) + E(vib) + E(rot) + E(trans)
    E(el)   - is the total energy from the electronic structure calculation
              = E(kin-el) + E(nuc-el) + E(el-el) + E(nuc-nuc)
    E(ZPE)  - the the zero temperature vibrational energy from the frequency calculation
    E(vib)  - the the finite temperature correction to E(ZPE) due to population
              of excited vibrational states
    E(rot)  - is the rotational thermal energy
    E(trans)- is the translational thermal energy

Summary of contributions to the inner energy U:
Electronic energy                ...   -916.94660859 Eh
Zero point energy                ...      0.28871230 Eh     181.17 kcal/mol
Thermal vibrational correction   ...      0.01350492 Eh       8.47 kcal/mol
Thermal rotational correction    ...      0.00141627 Eh       0.89 kcal/mol
Thermal translational correction ...      0.00141627 Eh       0.89 kcal/mol
-----------------------------------------------------------------------
Total thermal energy                   -916.64155882 Eh

Summary of corrections to the electronic energy:
(perhaps to be used in another calculation)
Total thermal correction                  0.01633746 Eh      10.25 kcal/mol
Non-thermal (ZPE) correction              0.28871230 Eh     181.17 kcal/mol
-----------------------------------------------------------------------
Total correction                          0.30504976 Eh     191.42 kcal/mol

--------
ENTHALPY
--------

The enthalpy is H = U + kB*T
                kB is Boltzmann's constant
Total free energy                 ...   -916.64155882 Eh
Thermal Enthalpy correction       ...      0.00094421 Eh       0.59 kcal/mol
-----------------------------------------------------------------------
Total Enthalpy                    ...   -916.64061461 Eh

Rotational constants in cm-1:     0.026220     0.003951     0.003434

                             ****ORCA TERMINATED NORMALLY****
TOTAL RUN TIME: 0 days 0 hours 25 minutes 25 seconds 329 msec
