                         Program Version 5.0.4 -  RELEASE  -
|  1> ! B3LYP def2-SVP Opt PAL8 FREQ defgrid3 slowconv VeryTightSCF
|  2> *xyz 0 1
|  3>  C        -7.226624        3.031802       -0.227926
|  4>  C        -5.969005        3.674652       -0.219587
|  5>  C        -4.782720        2.967811       -0.143270
|  6>  C        -4.785450        1.559585       -0.064240
|  7>  C        -3.572223        0.808556        0.045221
|  8>  C        -3.584315       -0.555325        0.128016
|  9>  C        -4.807675       -1.306727        0.097588
| 10>  C        -4.829297       -2.737361        0.172775
| 11>  C        -6.088182       -3.379748        0.154384
| 12>  C        -7.277987       -2.673037        0.079559
| 13>  C        -7.285213       -1.267578       -0.002232
| 14>  C        -8.497101       -0.516119       -0.110152
| 15>  C        -8.491831        0.847549       -0.192998
| 16>  C        -7.266982        1.600765       -0.161708
| 17>  C        -6.033592        0.862682       -0.074877
| 18>  C        -6.038546       -0.571415        0.004822
| 19>  C        -8.456503        3.817781       -0.276443
| 20>  C        -3.595249       -3.516253        0.253754
| 21>  C        -8.554861        5.151722       -0.634751
| 22>  C        -3.499204       -4.784233        0.731118
| 23>  C        -9.889059        5.750401       -0.607368
| 24>  N        -2.374052       -5.568834        0.718685
| 25>  N       -10.847751        6.372711       -0.595820
| 26>  H        -5.925703        4.766417       -0.237644
| 27>  H        -3.828197        3.500532       -0.123555
| 28>  H        -2.623941        1.352553        0.070059
| 29>  H        -2.635713       -1.082709        0.230158
| 30>  H        -6.127721       -4.471138        0.164074
| 31>  H        -8.230010       -3.211237        0.058680
| 32>  H        -9.446306       -1.059476       -0.132245
| 33>  H        -9.446672        1.362836       -0.295644
| 34>  H        -9.209072        3.118329        0.018480
| 35>  H        -2.673063       -3.046317       -0.100178
| 36>  H        -8.069123        5.651014       -0.982541
| 37>  H        -4.377370       -5.284480        1.152805
| 38>  H        -2.312802       -6.331901        1.380875
| 39>  H        -1.486740       -5.138933        0.481315
| 40> *
| 41>
| 42>                          ****END OF INPUT****
 Total Charge           Charge          ....    0
 Multiplicity           Mult            ....    1
 Number of Electrons    NEL             ....  154
FINAL SINGLE POINT ENERGY      -916.806218283635
FINAL SINGLE POINT ENERGY      -916.912373506032
FINAL SINGLE POINT ENERGY      -916.935719828084
FINAL SINGLE POINT ENERGY      -916.945807408153
FINAL SINGLE POINT ENERGY      -916.947046893447
FINAL SINGLE POINT ENERGY      -916.947133253858
FINAL SINGLE POINT ENERGY      -916.947168428545
FINAL SINGLE POINT ENERGY      -916.947196258766
FINAL SINGLE POINT ENERGY      -916.947204207987
FINAL SINGLE POINT ENERGY      -916.947206104098
                    ***********************HURRAY********************

CARTESIAN COORDINATES (ANGSTROEM)
---------------------------------
  C     -7.246389    3.015433   -0.226801
  C     -5.993641    3.666438   -0.218589
  C     -4.803347    2.965621   -0.135257
  C     -4.799244    1.557961   -0.053506
  C     -3.582643    0.811330    0.053410
  C     -3.589205   -0.552685    0.133029
  C     -4.809727   -1.309415    0.103728
  C     -4.825388   -2.740105    0.173723
  C     -6.081877   -3.387446    0.158852
  C     -7.274931   -2.685352    0.092189
  C     -7.288270   -1.279637    0.014015
  C     -8.503986   -0.532588   -0.084728
  C     -8.503778    0.831157   -0.168147
  C     -7.280277    1.586271   -0.149106
  C     -6.044147    0.854714   -0.062299
  C     -6.043770   -0.579123    0.016948
  C     -8.479579    3.794736   -0.296809
  C     -3.587685   -3.514408    0.245478
  C     -8.595607    5.104150   -0.635573
  C     -3.484251   -4.784193    0.716172
  C     -9.849025    5.783365   -0.643485
  N     -2.355787   -5.564155    0.694229
  N    -10.862464    6.355205   -0.649652
  H     -5.958997    4.757303   -0.251070
  H     -3.851395    3.502985   -0.118351
  H     -2.636386    1.358880    0.077522
  H     -2.638260   -1.076447    0.231958
  H     -6.116864   -4.479017    0.165174
  H     -8.224814   -3.227431    0.074708
  H     -9.451154   -1.079491   -0.098166
  H     -9.459158    1.347632   -0.258583
  H     -9.407895    3.277721   -0.045214
  H     -2.669033   -3.039242   -0.110699
  H     -7.729934    5.703037   -0.933064
  H     -4.358448   -5.290190    1.139221
  H     -2.286852   -6.328745    1.353989
  H     -1.471648   -5.129389    0.453943

 Multiplicity           Mult            ....    1
 Number of Electrons    NEL             ....  154
 Basis Dimension        Dim             ....  392

ORBITAL ENERGIES
----------------

  NO   OCC          E(Eh)            E(eV)
   0   2.0000     -14.359255      -390.7352
   1   2.0000     -14.310805      -389.4168
   2   2.0000     -10.239221      -278.6234
   3   2.0000     -10.219864      -278.0966
   4   2.0000     -10.217780      -278.0399
   5   2.0000     -10.212843      -277.9056
   6   2.0000     -10.208884      -277.7979
   7   2.0000     -10.207172      -277.7513
   8   2.0000     -10.206282      -277.7271
   9   2.0000     -10.203421      -277.6492
  10   2.0000     -10.203105      -277.6406
  11   2.0000     -10.200793      -277.5777
  12   2.0000     -10.200019      -277.5566
  13   2.0000     -10.198343      -277.5110
  14   2.0000     -10.196477      -277.4602
  15   2.0000     -10.196140      -277.4511
  16   2.0000     -10.195627      -277.4371
  17   2.0000     -10.194811      -277.4149
  18   2.0000     -10.194710      -277.4122
  19   2.0000     -10.194357      -277.4026
  20   2.0000     -10.193107      -277.3685
  21   2.0000     -10.191166      -277.3157
  22   2.0000     -10.182102      -277.0691
  23   2.0000      -0.922969       -25.1153
  24   2.0000      -0.888671       -24.1820
  25   2.0000      -0.880432       -23.9578
  26   2.0000      -0.853249       -23.2181
  27   2.0000      -0.828616       -22.5478
  28   2.0000      -0.814228       -22.1563
  29   2.0000      -0.786174       -21.3929
  30   2.0000      -0.772811       -21.0293
  31   2.0000      -0.746080       -20.3019
  32   2.0000      -0.737894       -20.0791
  33   2.0000      -0.724306       -19.7094
  34   2.0000      -0.700927       -19.0732
  35   2.0000      -0.653128       -17.7725
  36   2.0000      -0.634373       -17.2622
  37   2.0000      -0.628985       -17.1156
  38   2.0000      -0.614801       -16.7296
  39   2.0000      -0.598265       -16.2796
  40   2.0000      -0.586009       -15.9461
  41   2.0000      -0.551111       -14.9965
  42   2.0000      -0.543356       -14.7855
  43   2.0000      -0.529057       -14.3964
  44   2.0000      -0.520953       -14.1758
  45   2.0000      -0.509064       -13.8523
  46   2.0000      -0.504275       -13.7220
  47   2.0000      -0.493245       -13.4219
  48   2.0000      -0.476875       -12.9764
  49   2.0000      -0.467060       -12.7094
  50   2.0000      -0.448087       -12.1931
  51   2.0000      -0.445598       -12.1253
  52   2.0000      -0.438533       -11.9331
  53   2.0000      -0.424360       -11.5474
  54   2.0000      -0.419345       -11.4110
  55   2.0000      -0.415997       -11.3198
  56   2.0000      -0.405265       -11.0278
  57   2.0000      -0.401184       -10.9168
  58   2.0000      -0.395487       -10.7617
  59   2.0000      -0.388324       -10.5668
  60   2.0000      -0.379921       -10.3382
  61   2.0000      -0.379026       -10.3138
  62   2.0000      -0.368269       -10.0211
  63   2.0000      -0.359166        -9.7734
  64   2.0000      -0.358158        -9.7460
  65   2.0000      -0.348086        -9.4719
  66   2.0000      -0.344296        -9.3688
  67   2.0000      -0.336697        -9.1620
  68   2.0000      -0.323958        -8.8154
  69   2.0000      -0.319109        -8.6834
  70   2.0000      -0.317262        -8.6332
  71   2.0000      -0.291934        -7.9439
  72   2.0000      -0.271260        -7.3814
  73   2.0000      -0.261418        -7.1136
  74   2.0000      -0.238668        -6.4945
  75   2.0000      -0.225986        -6.1494
  76   2.0000      -0.186003        -5.0614
  77   0.0000      -0.083971        -2.2850
  78   0.0000      -0.044748        -1.2176
  79   0.0000      -0.033362        -0.9078
  80   0.0000      -0.013265        -0.3610
  81   0.0000       0.010806         0.2941

MULLIKEN ATOMIC CHARGES
-----------------------
   0 C :    0.053304
   1 C :   -0.022647
   2 C :   -0.033930
   3 C :    0.072859
   4 C :   -0.012971
   5 C :   -0.032082
   6 C :    0.053215
   7 C :    0.085373
   8 C :   -0.046126
   9 C :   -0.025552
  10 C :    0.061014
  11 C :   -0.005561
  12 C :   -0.047636
  13 C :    0.083912
  14 C :    0.053646
  15 C :    0.066705
  16 C :    0.017206
  17 C :   -0.057356
  18 C :   -0.122503
  19 C :    0.025501
  20 C :   -0.098786
  21 N :   -0.097850
  22 N :    0.029352
  23 H :   -0.025914
  24 H :   -0.032329
  25 H :   -0.034837
  26 H :   -0.036634
  27 H :   -0.033451
  28 H :   -0.033167
  29 H :   -0.031384
  30 H :   -0.031350
  31 H :    0.010392
  32 H :   -0.029416
  33 H :    0.035207
  34 H :    0.004644
  35 H :    0.124403
  36 H :    0.114750
Sum of atomic charges:   -0.0000000

LOEWDIN ATOMIC CHARGES
----------------------
   0 C :   -0.040260
   1 C :   -0.007984
   2 C :   -0.024481
   3 C :   -0.007553
   4 C :   -0.022720
   5 C :   -0.009442
   6 C :   -0.022917
   7 C :   -0.000168
   8 C :   -0.030513
   9 C :   -0.011394
  10 C :   -0.029660
  11 C :   -0.005802
  12 C :   -0.030782
  13 C :    0.001379
  14 C :    0.001649
  15 C :    0.004556
  16 C :    0.033751
  17 C :   -0.116440
  18 C :   -0.078868
  19 C :    0.036997
  20 C :   -0.037477
  21 N :   -0.009859
  22 N :   -0.081500
  23 H :    0.027460
  24 H :    0.027495
  25 H :    0.026979
  26 H :    0.025180
  27 H :    0.022845
  28 H :    0.027173
  29 H :    0.028779
  30 H :    0.026424
  31 H :    0.036379
  32 H :    0.018659
  33 H :    0.043369
  34 H :    0.025176
  35 H :    0.077672
  36 H :    0.075900

  Mayer bond orders larger than 0.100000
B(  0-C ,  1-C ) :   1.3086 B(  0-C , 13-C ) :   1.2531 B(  0-C , 16-C ) :   1.1158
B(  1-C ,  2-C ) :   1.3985 B(  1-C , 23-H ) :   0.9765 B(  2-C ,  3-C ) :   1.2665
B(  2-C , 24-H ) :   0.9879 B(  3-C ,  4-C ) :   1.1658 B(  3-C , 14-C ) :   1.2408
B(  4-C ,  5-C ) :   1.5287 B(  4-C , 25-H ) :   0.9842 B(  5-C ,  6-C ) :   1.1742
B(  5-C , 26-H ) :   0.9753 B(  6-C ,  7-C ) :   1.2598 B(  6-C , 15-C ) :   1.2314
B(  7-C ,  8-C ) :   1.3121 B(  7-C , 17-C ) :   1.1229 B(  8-C ,  9-C ) :   1.3895
B(  8-C , 27-H ) :   0.9754 B(  9-C , 10-C ) :   1.2728 B(  9-C , 28-H ) :   0.9862
B( 10-C , 11-C ) :   1.1629 B( 10-C , 15-C ) :   1.2415 B( 11-C , 12-C ) :   1.5350
B( 11-C , 29-H ) :   0.9830 B( 12-C , 13-C ) :   1.1714 B( 12-C , 30-H ) :   0.9767
B( 13-C , 14-C ) :   1.2325 B( 14-C , 15-C ) :   1.2284 B( 16-C , 18-C ) :   1.7416
B( 16-C , 31-H ) :   0.9567 B( 17-C , 19-C ) :   1.6637 B( 17-C , 32-H ) :   0.9464
B( 18-C , 20-C ) :   1.1093 B( 18-C , 33-H ) :   0.9444 B( 19-C , 21-N ) :   1.2482
B( 19-C , 34-H ) :   0.9536 B( 20-C , 22-N ) :   2.9612 B( 21-N , 35-H ) :   0.9537
B( 21-N , 36-H ) :   0.9582

FINAL SINGLE POINT ENERGY      -916.947206558173

DIPOLE MOMENT
-------------
                                X             Y             Z
Electronic contribution:     -7.40133      10.71090      -1.37510
Nuclear contribution   :     10.17087     -13.77257       1.99265
                        -----------------------------------------
Total Dipole Moment    :      2.76955      -3.06167       0.61755
                        -----------------------------------------
Magnitude (a.u.)       :      4.17440
Magnitude (Debye)      :     10.61047

VIBRATIONAL FREQUENCIES
-----------------------

Scaling factor for frequencies =  1.000000000  (already applied!)

   0:         0.00 cm**-1
   1:         0.00 cm**-1
   2:         0.00 cm**-1
   3:         0.00 cm**-1
   4:         0.00 cm**-1
   5:         0.00 cm**-1
   6:        24.79 cm**-1
   7:        53.83 cm**-1
   8:        64.29 cm**-1
   9:        68.36 cm**-1
  10:        96.61 cm**-1
  11:       101.17 cm**-1
  12:       118.38 cm**-1
  13:       146.45 cm**-1
  14:       193.28 cm**-1
  15:       220.84 cm**-1
  16:       221.60 cm**-1
  17:       256.23 cm**-1
  18:       268.91 cm**-1
  19:       290.27 cm**-1
  20:       310.80 cm**-1
  21:       343.50 cm**-1
  22:       368.67 cm**-1
  23:       378.80 cm**-1
  24:       419.90 cm**-1
  25:       440.10 cm**-1
  26:       450.96 cm**-1
  27:       494.17 cm**-1
  28:       500.31 cm**-1
  29:       510.49 cm**-1
  30:       514.12 cm**-1
  31:       527.64 cm**-1
  32:       530.62 cm**-1
  33:       562.54 cm**-1
  34:       565.69 cm**-1
  35:       581.10 cm**-1
  36:       620.06 cm**-1
  37:       632.23 cm**-1
  38:       677.12 cm**-1
  39:       702.22 cm**-1
  40:       718.05 cm**-1
  41:       755.16 cm**-1
  42:       763.22 cm**-1
  43:       780.29 cm**-1
  44:       813.38 cm**-1
  45:       815.87 cm**-1
  46:       826.76 cm**-1
  47:       842.57 cm**-1
  48:       853.36 cm**-1
  49:       872.52 cm**-1
  50:       881.98 cm**-1
  51:       886.10 cm**-1
  52:       940.76 cm**-1
  53:       970.45 cm**-1
  54:       981.85 cm**-1
  55:       986.58 cm**-1
  56:       992.09 cm**-1
  57:       998.42 cm**-1
  58:      1001.44 cm**-1
  59:      1010.49 cm**-1
  60:      1014.14 cm**-1
  61:      1038.71 cm**-1
  62:      1072.04 cm**-1
  63:      1120.83 cm**-1
  64:      1132.43 cm**-1
  65:      1178.62 cm**-1
  66:      1185.67 cm**-1
  67:      1200.72 cm**-1
  68:      1209.35 cm**-1
  69:      1241.49 cm**-1
  70:      1257.88 cm**-1
  71:      1264.80 cm**-1
  72:      1271.00 cm**-1
  73:      1278.70 cm**-1
  74:      1290.57 cm**-1
  75:      1325.95 cm**-1
  76:      1329.02 cm**-1
  77:      1332.27 cm**-1
  78:      1368.76 cm**-1
  79:      1379.52 cm**-1
  80:      1405.96 cm**-1
  81:      1411.26 cm**-1
  82:      1424.79 cm**-1
  83:      1441.23 cm**-1
  84:      1466.30 cm**-1
  85:      1504.35 cm**-1
  86:      1534.56 cm**-1
  87:      1545.85 cm**-1
  88:      1572.65 cm**-1
  89:      1613.60 cm**-1
  90:      1622.32 cm**-1
  91:      1636.82 cm**-1
  92:      1655.77 cm**-1
  93:      1661.89 cm**-1
  94:      1673.57 cm**-1
  95:      1712.30 cm**-1
  96:      2336.59 cm**-1
  97:      3159.38 cm**-1
  98:      3167.75 cm**-1
  99:      3170.71 cm**-1
 100:      3172.55 cm**-1
 101:      3172.97 cm**-1
 102:      3174.28 cm**-1
 103:      3177.31 cm**-1
 104:      3191.81 cm**-1
 105:      3192.44 cm**-1
 106:      3196.69 cm**-1
 107:      3213.56 cm**-1
 108:      3217.15 cm**-1
 109:      3572.21 cm**-1
 110:      3687.89 cm**-1

IR SPECTRUM
-----------

 Mode   freq       eps      Int      T**2         TX        TY        TZ
       cm**-1   L/(mol*cm) km/mol    a.u.
----------------------------------------------------------------------------
  6:     24.79   0.000013    0.06  0.000159  (-0.000282  0.012609  0.000617)
  7:     53.83   0.000576    2.91  0.003340  ( 0.033362 -0.042777 -0.019916)
  8:     64.29   0.000940    4.75  0.004565  ( 0.025746  0.023559  0.057856)
  9:     68.36   0.000090    0.46  0.000412  (-0.013537 -0.012665  0.008270)
 10:     96.61   0.002290   11.57  0.007395  (-0.005122 -0.082853  0.022463)
 11:    101.17   0.000009    0.05  0.000028  (-0.003904 -0.000967 -0.003393)
 12:    118.38   0.000190    0.96  0.000501  ( 0.013820  0.011051  0.013701)
 13:    146.45   0.000357    1.81  0.000761  (-0.009665  0.025835 -0.000714)
 14:    193.28   0.002027   10.24  0.003273  (-0.003251 -0.038380  0.042296)
 15:    220.84   0.000769    3.89  0.001087  (-0.002769  0.005322 -0.032414)
 16:    221.60   0.000254    1.28  0.000357  ( 0.013400 -0.011055 -0.007462)
 17:    256.23   0.000223    1.13  0.000272  (-0.015809  0.004047  0.002365)
 18:    268.91   0.000349    1.76  0.000405  (-0.004228  0.019509  0.002504)
 19:    290.27   0.000691    3.49  0.000743  (-0.003935  0.026784 -0.003157)
 20:    310.80   0.007818   39.51  0.007850  ( 0.037209 -0.079071 -0.014602)
 21:    343.50   0.008245   41.67  0.007490  ( 0.021076 -0.081075 -0.021751)
 22:    368.67   0.000474    2.40  0.000402  ( 0.004760 -0.016479  0.010364)
 23:    378.80   0.081974  414.26  0.067532  ( 0.084227 -0.232533 -0.079789)
 24:    419.90   0.004528   22.88  0.003365  ( 0.029831 -0.049690 -0.002546)
 25:    440.10   0.007078   35.77  0.005019  ( 0.031831 -0.061434 -0.015223)
 26:    450.96   0.000021    0.10  0.000014  ( 0.001818 -0.001692  0.002863)
 27:    494.17   0.002450   12.38  0.001547  (-0.022263  0.032385 -0.001582)
 28:    500.31   0.020315  102.67  0.012671  (-0.052569  0.085805  0.050452)
 29:    510.49   0.002043   10.32  0.001249  ( 0.015487 -0.020297 -0.024433)
 30:    514.12   0.000351    1.77  0.000213  ( 0.003886 -0.013950 -0.001747)
 31:    527.64   0.000192    0.97  0.000114  (-0.002728  0.009387 -0.004261)
 32:    530.62   0.000887    4.48  0.000522  ( 0.001850  0.022572 -0.002933)
 33:    562.54   0.000033    0.17  0.000019  (-0.000534  0.004209  0.000734)
 34:    565.69   0.000282    1.42  0.000156  (-0.006253  0.010750  0.000914)
 35:    581.10   0.001334    6.74  0.000716  (-0.015335  0.015261  0.015760)
 36:    620.06   0.001307    6.61  0.000658  (-0.009678  0.023713 -0.001411)
 37:    632.23   0.000134    0.68  0.000066  (-0.004315  0.006471 -0.002370)
 38:    677.12   0.000141    0.71  0.000065  (-0.002085  0.005228  0.005757)
 39:    702.22   0.000279    1.41  0.000124  (-0.007210  0.008425 -0.000935)
 40:    718.05   0.001116    5.64  0.000485  ( 0.000843 -0.001862  0.021924)
 41:    755.16   0.002436   12.31  0.001007  (-0.003241  0.003304  0.031387)
 42:    763.22   0.000301    1.52  0.000123  (-0.003989  0.004754 -0.009189)
 43:    780.29   0.000091    0.46  0.000036  (-0.004272  0.004264 -0.000133)
 44:    813.38   0.005056   25.55  0.001940  ( 0.018586 -0.039931  0.000075)
 45:    815.87   0.000479    2.42  0.000183  ( 0.006153 -0.006152  0.010371)
 46:    826.76   0.000699    3.53  0.000264  (-0.000478  0.013102 -0.009593)
 47:    842.57   0.003610   18.25  0.001337  ( 0.009201  0.003506  0.035218)
 48:    853.36   0.000068    0.34  0.000025  (-0.001491 -0.002071  0.004292)
 49:    872.52   0.006055   30.60  0.002166  ( 0.006418 -0.008775  0.045250)
 50:    881.98   0.000153    0.77  0.000054  (-0.005590 -0.001375 -0.004593)
 51:    886.10   0.006488   32.79  0.002285  ( 0.007567 -0.010721 -0.045963)
 52:    940.76   0.000609    3.08  0.000202  ( 0.004387 -0.003080  0.013162)
 53:    970.45   0.012614   63.75  0.004056  ( 0.032908 -0.038523  0.038592)
 54:    981.85   0.006767   34.20  0.002151  ( 0.007674 -0.028412 -0.035844)
 55:    986.58   0.000743    3.75  0.000235  ( 0.001978  0.000235  0.015201)
 56:    992.09   0.000115    0.58  0.000036  (-0.003468  0.000476 -0.004906)
 57:    998.42   0.000752    3.80  0.000235  ( 0.007594 -0.013018 -0.002824)
 58:   1001.44   0.001644    8.31  0.000512  (-0.008781  0.003038 -0.020638)
 59:   1010.49   0.000165    0.83  0.000051  (-0.001782  0.006906  0.000368)
 60:   1014.14   0.000023    0.12  0.000007  (-0.001541  0.001474 -0.001622)
 61:   1038.71   0.000092    0.47  0.000028  ( 0.005159 -0.000476 -0.000905)
 62:   1072.04   0.003268   16.52  0.000951  (-0.009719  0.029269 -0.000445)
 63:   1120.83   0.000269    1.36  0.000075  (-0.001647  0.008489  0.000154)
 64:   1132.43   0.000130    0.66  0.000036  (-0.004112  0.004285 -0.000717)
 65:   1178.62   0.000247    1.25  0.000065  (-0.002014  0.007711 -0.001401)
 66:   1185.67   0.000101    0.51  0.000027  (-0.003710  0.003533  0.000633)
 67:   1200.72   0.001150    5.81  0.000299  ( 0.001233  0.017201 -0.001177)
 68:   1209.35   0.003696   18.68  0.000954  (-0.030752  0.001963 -0.002073)
 69:   1241.49   0.012616   63.76  0.003171  (-0.035157  0.043655 -0.005431)
 70:   1257.88   0.063960  323.23  0.015868  (-0.060854  0.109387 -0.014104)
 71:   1264.80   0.012990   65.64  0.003205  ( 0.026312 -0.049877  0.004979)
 72:   1271.00   0.000839    4.24  0.000206  (-0.006671  0.012639 -0.001294)
 73:   1278.70   0.002413   12.20  0.000589  (-0.018471  0.015725 -0.000714)
 74:   1290.57   0.009234   46.67  0.002233  ( 0.031294 -0.034722  0.006926)
 75:   1325.95   0.016943   85.62  0.003987  (-0.032302  0.053603 -0.008411)
 76:   1329.02   0.000277    1.40  0.000065  ( 0.004040 -0.006212  0.003193)
 77:   1332.27   0.004919   24.86  0.001152  ( 0.006126 -0.032841  0.006021)
 78:   1368.76   0.000062    0.31  0.000014  ( 0.003015  0.002188 -0.000455)
 79:   1379.52   0.003524   17.81  0.000797  (-0.024730  0.013442 -0.002192)
 80:   1405.96   0.000786    3.97  0.000174  (-0.003858  0.012603 -0.000827)
 81:   1411.26   0.001017    5.14  0.000225  ( 0.006662 -0.013392  0.001091)
 82:   1424.79   0.004014   20.29  0.000879  (-0.005343  0.029043 -0.002690)
 83:   1441.23   0.001632    8.25  0.000353  (-0.011037  0.015085 -0.001986)
 84:   1466.30   0.001196    6.04  0.000255  (-0.012983  0.009249 -0.000667)
 85:   1504.35   0.000513    2.59  0.000106  (-0.009317 -0.004423  0.000322)
 86:   1534.56   0.002175   10.99  0.000442  ( 0.018217 -0.010320  0.001969)
 87:   1545.85   0.009146   46.22  0.001846  ( 0.019881 -0.037877  0.004053)
 88:   1572.65   0.005505   27.82  0.001092  (-0.021721  0.024676 -0.003428)
 89:   1613.60   0.002495   12.61  0.000483  ( 0.014942  0.015283  0.005079)
 90:   1622.32   0.000298    1.50  0.000057  (-0.006877  0.000667 -0.003085)
 91:   1636.82   0.100651  508.65  0.019189  ( 0.080245 -0.111813  0.015745)
 92:   1655.77   0.004969   25.11  0.000936  (-0.004981 -0.030121  0.002088)
 93:   1661.89   0.035299  178.39  0.006628  (-0.043160  0.068390 -0.009401)
 94:   1673.57   0.003256   16.45  0.000607  (-0.006807  0.023614 -0.001766)
 95:   1712.30   0.146733  741.53  0.026742  ( 0.093263 -0.132475  0.022229)
 96:   2336.59   0.031080  157.07  0.004151  (-0.040687  0.049668 -0.005353)
 97:   3159.38   0.004158   21.01  0.000411  (-0.016397  0.011910  0.000020)
 98:   3167.75   0.002819   14.25  0.000278  (-0.016005  0.004040  0.002285)
 99:   3170.71   0.001051    5.31  0.000103  (-0.009836 -0.000564  0.002523)
100:   3172.55   0.000774    3.91  0.000076  ( 0.005693 -0.006607 -0.000312)
101:   3172.97   0.001540    7.78  0.000151  ( 0.012101  0.001482  0.001690)
102:   3174.28   0.002194   11.09  0.000216  ( 0.014122 -0.003724  0.001534)
103:   3177.31   0.000786    3.97  0.000077  (-0.006792 -0.005568 -0.000258)
104:   3191.81   0.003847   19.44  0.000376  ( 0.006274  0.018325 -0.000982)
105:   3192.44   0.001471    7.44  0.000144  ( 0.003619 -0.011433  0.000099)
106:   3196.69   0.002164   10.94  0.000211  ( 0.007032  0.012712 -0.000471)
107:   3213.56   0.002930   14.81  0.000285  ( 0.016739 -0.002051  0.000373)
108:   3217.15   0.002440   12.33  0.000237  (-0.014678  0.004578 -0.000580)
109:   3572.21   0.029507  149.11  0.002578  ( 0.032728 -0.037089  0.011442)
110:   3687.89   0.007742   39.13  0.000655  (-0.004525 -0.021167  0.013661)

--------------------------
THERMOCHEMISTRY AT 298.15K
--------------------------

Temperature         ... 298.15 K
Pressure            ... 1.00 atm
Total Mass          ... 294.36 AMU

Throughout the following assumptions are being made:
  (1) The electronic state is orbitally nondegenerate
  (2) There are no thermally accessible electronically excited states
  (3) Hindered rotations indicated by low frequency modes are not
      treated as such but are treated as vibrations and this may
      cause some error
  (4) All equations used are the standard statistical mechanics
      equations for an ideal gas
  (5) All vibrations are strictly harmonic

freq.      24.79  E(vib)   ...       0.56
freq.      53.83  E(vib)   ...       0.52
freq.      64.29  E(vib)   ...       0.51
freq.      68.36  E(vib)   ...       0.50
freq.      96.61  E(vib)   ...       0.47
freq.     101.17  E(vib)   ...       0.46
freq.     118.38  E(vib)   ...       0.44
freq.     146.45  E(vib)   ...       0.41
freq.     193.28  E(vib)   ...       0.36
freq.     220.84  E(vib)   ...       0.33
freq.     221.60  E(vib)   ...       0.33
freq.     256.23  E(vib)   ...       0.30
freq.     268.91  E(vib)   ...       0.29
freq.     290.27  E(vib)   ...       0.27
freq.     310.80  E(vib)   ...       0.26
freq.     343.50  E(vib)   ...       0.23
freq.     368.67  E(vib)   ...       0.21
freq.     378.80  E(vib)   ...       0.21
freq.     419.90  E(vib)   ...       0.18
freq.     440.10  E(vib)   ...       0.17
freq.     450.96  E(vib)   ...       0.17
freq.     494.17  E(vib)   ...       0.14
freq.     500.31  E(vib)   ...       0.14
freq.     510.49  E(vib)   ...       0.14
freq.     514.12  E(vib)   ...       0.13
freq.     527.64  E(vib)   ...       0.13
freq.     530.62  E(vib)   ...       0.13
freq.     562.54  E(vib)   ...       0.11
freq.     565.69  E(vib)   ...       0.11
freq.     581.10  E(vib)   ...       0.11
freq.     620.06  E(vib)   ...       0.09
freq.     632.23  E(vib)   ...       0.09
freq.     677.12  E(vib)   ...       0.08
freq.     702.22  E(vib)   ...       0.07
freq.     718.05  E(vib)   ...       0.07
freq.     755.16  E(vib)   ...       0.06
freq.     763.22  E(vib)   ...       0.06
freq.     780.29  E(vib)   ...       0.05
freq.     813.38  E(vib)   ...       0.05
freq.     815.87  E(vib)   ...       0.05
freq.     826.76  E(vib)   ...       0.04
freq.     842.57  E(vib)   ...       0.04
freq.     853.36  E(vib)   ...       0.04
freq.     872.52  E(vib)   ...       0.04
freq.     881.98  E(vib)   ...       0.04
freq.     886.10  E(vib)   ...       0.04
freq.     940.76  E(vib)   ...       0.03
freq.     970.45  E(vib)   ...       0.03
freq.     981.85  E(vib)   ...       0.02
freq.     986.58  E(vib)   ...       0.02
freq.     992.09  E(vib)   ...       0.02
freq.     998.42  E(vib)   ...       0.02
freq.    1001.44  E(vib)   ...       0.02
freq.    1010.49  E(vib)   ...       0.02
freq.    1014.14  E(vib)   ...       0.02
freq.    1038.71  E(vib)   ...       0.02
freq.    1072.04  E(vib)   ...       0.02
freq.    1120.83  E(vib)   ...       0.01
freq.    1132.43  E(vib)   ...       0.01
freq.    1178.62  E(vib)   ...       0.01
freq.    1185.67  E(vib)   ...       0.01
freq.    1200.72  E(vib)   ...       0.01
freq.    1209.35  E(vib)   ...       0.01
freq.    1241.49  E(vib)   ...       0.01
freq.    1257.88  E(vib)   ...       0.01
freq.    1264.80  E(vib)   ...       0.01
freq.    1271.00  E(vib)   ...       0.01
freq.    1278.70  E(vib)   ...       0.01
freq.    1290.57  E(vib)   ...       0.01
freq.    1325.95  E(vib)   ...       0.01
freq.    1329.02  E(vib)   ...       0.01
freq.    1332.27  E(vib)   ...       0.01
freq.    1368.76  E(vib)   ...       0.01
freq.    1379.52  E(vib)   ...       0.01
freq.    1405.96  E(vib)   ...       0.00
freq.    1411.26  E(vib)   ...       0.00
freq.    1424.79  E(vib)   ...       0.00
freq.    1441.23  E(vib)   ...       0.00
freq.    1466.30  E(vib)   ...       0.00
freq.    1504.35  E(vib)   ...       0.00
freq.    1534.56  E(vib)   ...       0.00
freq.    1545.85  E(vib)   ...       0.00
freq.    1572.65  E(vib)   ...       0.00
freq.    1613.60  E(vib)   ...       0.00
freq.    1622.32  E(vib)   ...       0.00
freq.    1636.82  E(vib)   ...       0.00
freq.    1655.77  E(vib)   ...       0.00
freq.    1661.89  E(vib)   ...       0.00
freq.    1673.57  E(vib)   ...       0.00
freq.    1712.30  E(vib)   ...       0.00
freq.    2336.59  E(vib)   ...       0.00
freq.    3159.38  E(vib)   ...       0.00
freq.    3167.75  E(vib)   ...       0.00
freq.    3170.71  E(vib)   ...       0.00
freq.    3172.55  E(vib)   ...       0.00
freq.    3172.97  E(vib)   ...       0.00
freq.    3174.28  E(vib)   ...       0.00
freq.    3177.31  E(vib)   ...       0.00
freq.    3191.81  E(vib)   ...       0.00
freq.    3192.44  E(vib)   ...       0.00
freq.    3196.69  E(vib)   ...       0.00
freq.    3213.56  E(vib)   ...       0.00
freq.    3217.15  E(vib)   ...       0.00
freq.    3572.21  E(vib)   ...       0.00
freq.    3687.89  E(vib)   ...       0.00

------------
INNER ENERGY
------------

The inner energy is: U= E(el) + E(ZPE) + E(vib) + E(rot) + E(trans)
    E(el)   - is the total energy from the electronic structure calculation
              = E(kin-el) + E(nuc-el) + E(el-el) + E(nuc-nuc)
    E(ZPE)  - the the zero temperature vibrational energy from the frequency calculation
    E(vib)  - the the finite temperature correction to E(ZPE) due to population
              of excited vibrational states
    E(rot)  - is the rotational thermal energy
    E(trans)- is the translational thermal energy

Summary of contributions to the inner energy U:
Electronic energy                ...   -916.94720656 Eh
Zero point energy                ...      0.28961526 Eh     181.74 kcal/mol
Thermal vibrational correction   ...      0.01537115 Eh       9.65 kcal/mol
Thermal rotational correction    ...      0.00141627 Eh       0.89 kcal/mol
Thermal translational correction ...      0.00141627 Eh       0.89 kcal/mol
-----------------------------------------------------------------------
Total thermal energy                   -916.63938760 Eh

Summary of corrections to the electronic energy:
(perhaps to be used in another calculation)
Total thermal correction                  0.01820370 Eh      11.42 kcal/mol
Non-thermal (ZPE) correction              0.28961526 Eh     181.74 kcal/mol
-----------------------------------------------------------------------
Total correction                          0.30781895 Eh     193.16 kcal/mol

--------
ENTHALPY
--------

The enthalpy is H = U + kB*T
                kB is Boltzmann's constant
Total free energy                 ...   -916.63938760 Eh

Rotational constants in cm-1:     0.026173     0.003962     0.003446

                             ****ORCA TERMINATED NORMALLY****
TOTAL RUN TIME: 0 days 0 hours 54 minutes 32 seconds 129 msec
