                         Program Version 5.0.4 -  RELEASE  -
|  1> ! B3LYP def2-SVP Opt PAL8 FREQ defgrid3 slowconv VeryTightSCF
|  2> *xyz 0 1
|  3>   C      -7.228982      3.036029     -0.277960
|  4>   C      -5.972786      3.680575     -0.277902
|  5>   C      -4.786362      2.977780     -0.177035
|  6>   C      -4.787438      1.571841     -0.069510
|  7>   C      -3.573387      0.822703      0.032386
|  8>   C      -3.582866     -0.539693      0.134815
|  9>   C      -4.804009     -1.295394      0.147072
| 10>   C      -4.824138     -2.726834      0.253867
| 11>   C      -6.087866     -3.363979      0.256340
| 12>   C      -7.274579     -2.659416      0.161335
| 13>   C      -7.283456     -1.255001      0.054658
| 14>   C      -8.496149     -0.506473     -0.045897
| 15>   C      -8.493540      0.855952     -0.151446
| 16>   C      -7.268445      1.607197     -0.165709
| 17>   C      -6.033981      0.872168     -0.062459
| 18>   C      -6.036583     -0.560608      0.046824
| 19>   C      -8.457296      3.815273     -0.394704
| 20>   C      -3.590814     -3.498729      0.356104
| 21>   C      -8.567885      5.163771     -0.514902
| 22>   C      -3.494606     -4.851694      0.461988
| 23>   C      -9.830733      5.815426     -0.627826
| 24>   N      -2.334995     -5.563795      0.556666
| 25>   N     -10.853578      6.362725     -0.721048
| 26>   H      -5.928726      4.768210     -0.360620
| 27>   H      -3.831773      3.510692     -0.181387
| 28>   H      -2.624151      1.365553      0.026115
| 29>   H      -2.627120     -1.057524      0.209182
| 30>   H      -6.141294     -4.451568      0.335675
| 31>   H      -8.227241     -3.196917      0.168210
| 32>   H      -9.445614     -1.049607     -0.037410
| 33>   H      -9.450715      1.370937     -0.225379
| 34>   H      -9.397432      3.261837     -0.388677
| 35>   H      -2.647046     -2.949559      0.347841
| 36>   H      -7.694379      5.821454     -0.533768
| 37>   H      -4.389807     -5.480207      0.478173
| 38>   H      -2.346106     -6.569613      0.632952
| 39>   H      -1.434309     -5.103511      0.553438
| 40> *
| 41>
| 42>                          ****END OF INPUT****
 Total Charge           Charge          ....    0
 Multiplicity           Mult            ....    1
 Number of Electrons    NEL             ....  154
FINAL SINGLE POINT ENERGY      -916.946577018177
                    ***********************HURRAY********************

CARTESIAN COORDINATES (ANGSTROEM)
---------------------------------
  C     -7.228152    3.035781   -0.284025
  C     -5.971927    3.680616   -0.284341
  C     -4.785312    2.977863   -0.183536
  C     -4.786504    1.571762   -0.075393
  C     -3.572404    0.822794    0.029079
  C     -3.582086   -0.539581    0.133537
  C     -4.803261   -1.295231    0.145087
  C     -4.823748   -2.726413    0.254315
  C     -6.087506   -3.363616    0.256531
  C     -7.274167   -2.659273    0.158289
  C     -7.282613   -1.254923    0.049244
  C     -8.495314   -0.506593   -0.053696
  C     -8.492493    0.855844   -0.160048
  C     -7.267391    1.606977   -0.173555
  C     -6.032997    0.872033   -0.069212
  C     -6.035662   -0.560589    0.041887
  C     -8.457036    3.814744   -0.394531
  C     -3.590994   -3.498456    0.359130
  C     -8.569520    5.163749   -0.507918
  C     -3.495758   -4.851328    0.467623
  C     -9.833447    5.814771   -0.609695
  N     -2.336970   -5.564149    0.564872
  N    -10.857091    6.362125   -0.693801
  H     -5.928082    4.768321   -0.365935
  H     -3.830760    3.510857   -0.186848
  H     -2.623272    1.365831    0.023882
  H     -2.626489   -1.057480    0.210235
  H     -6.141069   -4.451017    0.338082
  H     -8.226842   -3.196739    0.164720
  H     -9.444689   -1.049862   -0.045708
  H     -9.449556    1.371022   -0.234800
  H     -9.396789    3.260588   -0.386389
  H     -2.646987   -2.949533    0.350676
  H     -7.696842    5.822568   -0.526749
  H     -4.391530   -5.479051    0.484063
  H     -2.349040   -6.569778    0.643108
  H     -1.435884   -5.104632    0.561821

 Multiplicity           Mult            ....    1
 Number of Electrons    NEL             ....  154
 Basis Dimension        Dim             ....  392

ORBITAL ENERGIES
----------------

  NO   OCC          E(Eh)            E(eV)
   0   2.0000     -14.363790      -390.8586
   1   2.0000     -14.308483      -389.3536
   2   2.0000     -10.243166      -278.7307
   3   2.0000     -10.217310      -278.0271
   4   2.0000     -10.215498      -277.9778
   5   2.0000     -10.210724      -277.8479
   6   2.0000     -10.207962      -277.7728
   7   2.0000     -10.207703      -277.7657
   8   2.0000     -10.204407      -277.6760
   9   2.0000     -10.201928      -277.6086
  10   2.0000     -10.201623      -277.6003
  11   2.0000     -10.199555      -277.5440
  12   2.0000     -10.199073      -277.5309
  13   2.0000     -10.196687      -277.4660
  14   2.0000     -10.195534      -277.4346
  15   2.0000     -10.194318      -277.4015
  16   2.0000     -10.193829      -277.3882
  17   2.0000     -10.193142      -277.3695
  18   2.0000     -10.192833      -277.3611
  19   2.0000     -10.192532      -277.3529
  20   2.0000     -10.190993      -277.3110
  21   2.0000     -10.190254      -277.2909
  22   2.0000     -10.181301      -277.0473
  23   2.0000      -0.926586       -25.2137
  24   2.0000      -0.886950       -24.1351
  25   2.0000      -0.878212       -23.8974
  26   2.0000      -0.851667       -23.1750
  27   2.0000      -0.827119       -22.5071
  28   2.0000      -0.812742       -22.1158
  29   2.0000      -0.784636       -21.3510
  30   2.0000      -0.771995       -21.0070
  31   2.0000      -0.744857       -20.2686
  32   2.0000      -0.736835       -20.0503
  33   2.0000      -0.723427       -19.6855
  34   2.0000      -0.700890       -19.0722
  35   2.0000      -0.651927       -17.7398
  36   2.0000      -0.635676       -17.2976
  37   2.0000      -0.628164       -17.0932
  38   2.0000      -0.613816       -16.7028
  39   2.0000      -0.599527       -16.3140
  40   2.0000      -0.586731       -15.9658
  41   2.0000      -0.554589       -15.0911
  42   2.0000      -0.545554       -14.8453
  43   2.0000      -0.528037       -14.3686
  44   2.0000      -0.520497       -14.1635
  45   2.0000      -0.509615       -13.8673
  46   2.0000      -0.503987       -13.7142
  47   2.0000      -0.492046       -13.3893
  48   2.0000      -0.476703       -12.9718
  49   2.0000      -0.465876       -12.6771
  50   2.0000      -0.448552       -12.2057
  51   2.0000      -0.443783       -12.0760
  52   2.0000      -0.437760       -11.9121
  53   2.0000      -0.421547       -11.4709
  54   2.0000      -0.417093       -11.3497
  55   2.0000      -0.416413       -11.3312
  56   2.0000      -0.404372       -11.0035
  57   2.0000      -0.399681       -10.8759
  58   2.0000      -0.394161       -10.7257
  59   2.0000      -0.385128       -10.4799
  60   2.0000      -0.384790       -10.4707
  61   2.0000      -0.378551       -10.3009
  62   2.0000      -0.371071       -10.0974
  63   2.0000      -0.358123        -9.7450
  64   2.0000      -0.355345        -9.6694
  65   2.0000      -0.347028        -9.4431
  66   2.0000      -0.342302        -9.3145
  67   2.0000      -0.335461        -9.1284
  68   2.0000      -0.322145        -8.7660
  69   2.0000      -0.318062        -8.6549
  70   2.0000      -0.316811        -8.6209
  71   2.0000      -0.290992        -7.9183
  72   2.0000      -0.271265        -7.3815
  73   2.0000      -0.259835        -7.0705
  74   2.0000      -0.237035        -6.4501
  75   2.0000      -0.224264        -6.1025
  76   2.0000      -0.181933        -4.9507
  77   0.0000      -0.082659        -2.2493
  78   0.0000      -0.042583        -1.1587
  79   0.0000      -0.032932        -0.8961
  80   0.0000      -0.011309        -0.3077
  81   0.0000       0.014317         0.3896

MULLIKEN ATOMIC CHARGES
-----------------------
   0 C :    0.058754
   1 C :   -0.022809
   2 C :   -0.033531
   3 C :    0.072487
   4 C :   -0.016158
   5 C :   -0.030557
   6 C :    0.051743
   7 C :    0.104799
   8 C :   -0.049455
   9 C :   -0.023365
  10 C :    0.057969
  11 C :   -0.007092
  12 C :   -0.048378
  13 C :    0.085836
  14 C :    0.053026
  15 C :    0.068487
  16 C :    0.023457
  17 C :   -0.048731
  18 C :   -0.126458
  19 C :    0.038474
  20 C :   -0.099850
  21 N :   -0.089754
  22 N :    0.030256
  23 H :   -0.028992
  24 H :   -0.033536
  25 H :   -0.035855
  26 H :   -0.038680
  27 H :   -0.040300
  28 H :   -0.035081
  29 H :   -0.032458
  30 H :   -0.033132
  31 H :    0.001859
  32 H :   -0.049925
  33 H :    0.032667
  34 H :   -0.000531
  35 H :    0.125882
  36 H :    0.118932
Sum of atomic charges:   -0.0000000

LOEWDIN ATOMIC CHARGES
----------------------
   0 C :   -0.041846
   1 C :   -0.006596
   2 C :   -0.025781
   3 C :   -0.006966
   4 C :   -0.024651
   5 C :   -0.009094
   6 C :   -0.025004
   7 C :    0.003209
   8 C :   -0.032076
   9 C :   -0.010575
  10 C :   -0.032262
  11 C :   -0.006243
  12 C :   -0.032265
  13 C :    0.002743
  14 C :    0.001653
  15 C :    0.005374
  16 C :    0.033413
  17 C :   -0.121415
  18 C :   -0.080968
  19 C :    0.043917
  20 C :   -0.037841
  21 N :    0.002357
  22 N :   -0.083831
  23 H :    0.026872
  24 H :    0.027112
  25 H :    0.026604
  26 H :    0.024685
  27 H :    0.020968
  28 H :    0.026839
  29 H :    0.028379
  30 H :    0.026057
  31 H :    0.035574
  32 H :    0.017238
  33 H :    0.042129
  34 H :    0.024693
  35 H :    0.079495
  36 H :    0.078104

  Mayer bond orders larger than 0.100000
B(  0-C ,  1-C ) :   1.3038 B(  0-C , 13-C ) :   1.2447 B(  0-C , 16-C ) :   1.1281
B(  1-C ,  2-C ) :   1.4044 B(  1-C , 23-H ) :   0.9758 B(  2-C ,  3-C ) :   1.2624
B(  2-C , 24-H ) :   0.9875 B(  3-C ,  4-C ) :   1.1684 B(  3-C , 14-C ) :   1.2420
B(  4-C ,  5-C ) :   1.5303 B(  4-C , 25-H ) :   0.9835 B(  5-C ,  6-C ) :   1.1742
B(  5-C , 26-H ) :   0.9777 B(  6-C ,  7-C ) :   1.2460 B(  6-C , 15-C ) :   1.2338
B(  7-C ,  8-C ) :   1.2933 B(  7-C , 17-C ) :   1.1562 B(  8-C ,  9-C ) :   1.4116
B(  8-C , 27-H ) :   0.9740 B(  9-C , 10-C ) :   1.2628 B(  9-C , 28-H ) :   0.9848
B( 10-C , 11-C ) :   1.1677 B( 10-C , 15-C ) :   1.2444 B( 11-C , 12-C ) :   1.5313
B( 11-C , 29-H ) :   0.9826 B( 12-C , 13-C ) :   1.1740 B( 12-C , 30-H ) :   0.9779
B( 13-C , 14-C ) :   1.2334 B( 14-C , 15-C ) :   1.2272 B( 16-C , 18-C ) :   1.7341
B( 16-C , 31-H ) :   0.9601 B( 17-C , 19-C ) :   1.6227 B( 17-C , 32-H ) :   0.9550
B( 18-C , 20-C ) :   1.1105 B( 18-C , 33-H ) :   0.9436 B( 19-C , 21-N ) :   1.2737
B( 19-C , 34-H ) :   0.9510 B( 20-C , 22-N ) :   2.9608 B( 21-N , 35-H ) :   0.9536
B( 21-N , 36-H ) :   0.9567

FINAL SINGLE POINT ENERGY      -916.946580107632

DIPOLE MOMENT
-------------
                                X             Y             Z
Electronic contribution:     -7.20043      10.53722      -1.09786
Nuclear contribution   :     10.11462     -14.01760       1.48345
                        -----------------------------------------
Total Dipole Moment    :      2.91419      -3.48038       0.38558
                        -----------------------------------------
Magnitude (a.u.)       :      4.55568
Magnitude (Debye)      :     11.57962

VIBRATIONAL FREQUENCIES
-----------------------

Scaling factor for frequencies =  1.000000000  (already applied!)

   0:         0.00 cm**-1
   1:         0.00 cm**-1
   2:         0.00 cm**-1
   3:         0.00 cm**-1
   4:         0.00 cm**-1
   5:         0.00 cm**-1
   6:      -237.20 cm**-1 ***imaginary mode***
   7:       -64.22 cm**-1 ***imaginary mode***
   8:       -44.00 cm**-1 ***imaginary mode***
   9:        25.55 cm**-1
  10:        62.20 cm**-1
  11:        72.19 cm**-1
  12:        99.26 cm**-1
  13:       123.14 cm**-1
  14:       141.69 cm**-1
  15:       188.93 cm**-1
  16:       219.46 cm**-1
  17:       220.83 cm**-1
  18:       256.34 cm**-1
  19:       260.57 cm**-1
  20:       284.02 cm**-1
  21:       315.19 cm**-1
  22:       348.38 cm**-1
  23:       367.54 cm**-1
  24:       420.60 cm**-1
  25:       437.58 cm**-1
  26:       447.52 cm**-1
  27:       490.91 cm**-1
  28:       495.97 cm**-1
  29:       508.49 cm**-1
  30:       512.53 cm**-1
  31:       525.41 cm**-1
  32:       529.72 cm**-1
  33:       562.33 cm**-1
  34:       563.67 cm**-1
  35:       583.84 cm**-1
  36:       620.15 cm**-1
  37:       633.23 cm**-1
  38:       679.29 cm**-1
  39:       702.75 cm**-1
  40:       716.69 cm**-1
  41:       752.86 cm**-1
  42:       762.91 cm**-1
  43:       779.97 cm**-1
  44:       812.49 cm**-1
  45:       813.65 cm**-1
  46:       825.91 cm**-1
  47:       843.54 cm**-1
  48:       853.04 cm**-1
  49:       870.47 cm**-1
  50:       882.01 cm**-1
  51:       889.40 cm**-1
  52:       944.37 cm**-1
  53:       975.09 cm**-1
  54:       978.04 cm**-1
  55:       984.10 cm**-1
  56:       989.89 cm**-1
  57:      1000.07 cm**-1
  58:      1000.26 cm**-1
  59:      1009.49 cm**-1
  60:      1013.79 cm**-1
  61:      1037.93 cm**-1
  62:      1056.46 cm**-1
  63:      1119.40 cm**-1
  64:      1133.64 cm**-1
  65:      1181.83 cm**-1
  66:      1189.11 cm**-1
  67:      1204.39 cm**-1
  68:      1211.47 cm**-1
  69:      1242.80 cm**-1
  70:      1260.77 cm**-1
  71:      1265.71 cm**-1
  72:      1272.15 cm**-1
  73:      1280.99 cm**-1
  74:      1296.85 cm**-1
  75:      1332.46 cm**-1
  76:      1333.92 cm**-1
  77:      1335.73 cm**-1
  78:      1372.35 cm**-1
  79:      1385.38 cm**-1
  80:      1404.94 cm**-1
  81:      1412.39 cm**-1
  82:      1425.27 cm**-1
  83:      1444.19 cm**-1
  84:      1468.42 cm**-1
  85:      1506.67 cm**-1
  86:      1535.40 cm**-1
  87:      1547.58 cm**-1
  88:      1573.38 cm**-1
  89:      1609.89 cm**-1
  90:      1622.28 cm**-1
  91:      1635.41 cm**-1
  92:      1656.37 cm**-1
  93:      1661.72 cm**-1
  94:      1672.49 cm**-1
  95:      1711.18 cm**-1
  96:      2334.78 cm**-1
  97:      3167.73 cm**-1
  98:      3171.46 cm**-1
  99:      3171.83 cm**-1
 100:      3174.00 cm**-1
 101:      3175.83 cm**-1
 102:      3178.23 cm**-1
 103:      3181.38 cm**-1
 104:      3194.36 cm**-1
 105:      3198.36 cm**-1
 106:      3199.85 cm**-1
 107:      3218.05 cm**-1
 108:      3221.47 cm**-1
 109:      3607.74 cm**-1
 110:      3736.83 cm**-1

IR SPECTRUM
-----------

 Mode   freq       eps      Int      T**2         TX        TY        TZ
       cm**-1   L/(mol*cm) km/mol    a.u.
----------------------------------------------------------------------------
  9:     25.55   0.000001    0.00  0.000009  (-0.000218  0.000493  0.002980)
 10:     62.20   0.000864    4.37  0.004338  (-0.002470  0.005281  0.065601)
 11:     72.19   0.000225    1.14  0.000972  ( 0.016284  0.026514 -0.001917)
 12:     99.26   0.000010    0.05  0.000032  ( 0.000237 -0.000527 -0.005624)
 13:    123.14   0.000982    4.96  0.002488  ( 0.025606  0.042742 -0.002267)
 14:    141.69   0.000037    0.19  0.000082  ( 0.000143 -0.000548 -0.009031)
 15:    188.93   0.002632   13.30  0.004347  (-0.002529  0.005117  0.065683)
 16:    219.46   0.000634    3.20  0.000901  ( 0.001536 -0.001909 -0.029914)
 17:    220.83   0.000142    0.72  0.000201  (-0.010916 -0.009012 -0.000900)
 18:    256.34   0.000171    0.86  0.000208  ( 0.013283  0.005613 -0.000068)
 19:    260.57   0.000005    0.02  0.000006  ( 0.000319 -0.000360 -0.002299)
 20:    284.02   0.000206    1.04  0.000226  ( 0.000431 -0.001002 -0.014999)
 21:    315.19   0.001090    5.51  0.001079  (-0.019471  0.026309 -0.002826)
 22:    348.38   0.000229    1.16  0.000205  ( 0.011977 -0.007781  0.001087)
 23:    367.54   0.000666    3.36  0.000565  (-0.001044  0.002088  0.023657)
 24:    420.60   0.002594   13.11  0.001925  ( 0.024876 -0.035934  0.003802)
 25:    437.58   0.000338    1.71  0.000241  (-0.011867  0.009944 -0.001278)
 26:    447.52   0.000001    0.00  0.000000  (-0.000020 -0.000089 -0.000607)
 27:    490.91   0.000013    0.06  0.000008  ( 0.000099 -0.000144 -0.002835)
 28:    495.97   0.000927    4.69  0.000583  (-0.000970  0.001873  0.024061)
 29:    508.49   0.000048    0.24  0.000029  ( 0.002237 -0.004887  0.000517)
 30:    512.53   0.000707    3.58  0.000431  ( 0.005417 -0.019953  0.001813)
 31:    525.41   0.000009    0.05  0.000005  (-0.000096 -0.000241  0.002306)
 32:    529.72   0.001118    5.65  0.000658  ( 0.001565 -0.025537  0.001966)
 33:    562.33   0.000156    0.79  0.000087  ( 0.004326 -0.008199  0.000799)
 34:    563.67   0.000012    0.06  0.000007  ( 0.000133 -0.000365 -0.002544)
 35:    583.84   0.000233    1.18  0.000125  (-0.000485  0.000931  0.011110)
 36:    620.15   0.002052   10.37  0.001032  (-0.012738  0.029372 -0.002723)
 37:    633.23   0.000402    2.03  0.000198  ( 0.007075 -0.012098  0.001264)
 38:    679.29   0.000056    0.28  0.000026  (-0.000063  0.000319  0.005053)
 39:    702.75   0.000578    2.92  0.000256  ( 0.009205 -0.013036  0.001348)
 40:    716.69   0.000961    4.86  0.000419  (-0.000747  0.001465  0.020395)
 41:    752.86   0.002714   13.71  0.001125  ( 0.001230 -0.002624 -0.033413)
 42:    762.91   0.000265    1.34  0.000108  ( 0.006436 -0.008125  0.000906)
 43:    779.97   0.000088    0.44  0.000035  ( 0.003526 -0.004736  0.000497)
 44:    812.49   0.000134    0.68  0.000051  (-0.000176  0.000324 -0.007156)
 45:    813.65   0.005674   28.67  0.002176  (-0.020317  0.041817 -0.003831)
 46:    825.91   0.000612    3.09  0.000231  (-0.000565  0.001017  0.015166)
 47:    843.54   0.002345   11.85  0.000868  ( 0.001097 -0.002223 -0.029352)
 48:    853.04   0.000065    0.33  0.000024  ( 0.004823  0.000599  0.000119)
 49:    870.47   0.009399   47.50  0.003370  ( 0.002076 -0.004331 -0.057850)
 50:    882.01   0.000311    1.57  0.000110  (-0.000355  0.000916  0.010446)
 51:    889.40   0.002444   12.35  0.000858  (-0.001178  0.002331  0.029169)
 52:    944.37   0.000961    4.86  0.000318  ( 0.000736 -0.001391 -0.017753)
 53:    975.09   0.004160   21.02  0.001331  ( 0.001167 -0.002572 -0.036378)
 54:    978.04   0.007465   37.73  0.002382  (-0.022833  0.042949 -0.003998)
 55:    984.10   0.004291   21.68  0.001361  (-0.001402  0.002890  0.036746)
 56:    989.89   0.000005    0.02  0.000001  (-0.000037  0.000094  0.001196)
 57:   1000.07   0.001024    5.18  0.000320  (-0.000075 -0.000322 -0.017873)
 58:   1000.26   0.001159    5.86  0.000362  ( 0.010896 -0.015581  0.000452)
 59:   1009.49   0.000189    0.96  0.000059  (-0.000247  0.000558  0.007626)
 60:   1013.79   0.000017    0.09  0.000005  (-0.000061  0.000200  0.002299)
 61:   1037.93   0.000461    2.33  0.000138  (-0.008132  0.008456 -0.000922)
 62:   1056.46   0.004776   24.13  0.001411  ( 0.009754 -0.036133  0.003143)
 63:   1119.40   0.000210    1.06  0.000059  ( 0.001634 -0.007452  0.000609)
 64:   1133.64   0.000107    0.54  0.000029  ( 0.004042 -0.003578  0.000420)
 65:   1181.83   0.000039    0.20  0.000010  ( 0.000317 -0.003204  0.000240)
 66:   1189.11   0.000163    0.82  0.000043  ( 0.005108 -0.004050  0.000488)
 67:   1204.39   0.002243   11.33  0.000581  ( 0.005810 -0.023302  0.002076)
 68:   1211.47   0.003760   19.00  0.000968  ( 0.031001 -0.002338  0.001370)
 69:   1242.80   0.010329   52.20  0.002594  ( 0.033437 -0.038189  0.004156)
 70:   1260.77   0.105205  531.66  0.026040  ( 0.079041 -0.139999  0.013882)
 71:   1265.71   0.000489    2.47  0.000121  (-0.003391  0.010401 -0.000985)
 72:   1272.15   0.000014    0.07  0.000003  (-0.000638  0.001696 -0.000231)
 73:   1280.99   0.002830   14.30  0.000689  ( 0.020739 -0.015975  0.002046)
 74:   1296.85   0.010464   52.88  0.002518  (-0.033899  0.036766 -0.004130)
 75:   1332.46   0.022962  116.04  0.005378  ( 0.032547 -0.065414  0.006279)
 76:   1333.92   0.001519    7.68  0.000355  (-0.015824  0.010144 -0.001465)
 77:   1335.73   0.018010   91.01  0.004208  (-0.033147  0.055485 -0.005504)
 78:   1372.35   0.000039    0.20  0.000009  (-0.001541 -0.002531  0.000139)
 79:   1385.38   0.003419   17.28  0.000770  ( 0.025302 -0.011244  0.001867)
 80:   1404.94   0.001042    5.26  0.000231  ( 0.007007 -0.013438  0.001290)
 81:   1412.39   0.003052   15.42  0.000674  ( 0.011320 -0.023264  0.002231)
 82:   1425.27   0.003230   16.33  0.000707  (-0.002030  0.026430 -0.002158)
 83:   1444.19   0.002117   10.70  0.000458  (-0.011299  0.018070 -0.001826)
 84:   1468.42   0.001307    6.60  0.000278  (-0.013849  0.009189 -0.001202)
 85:   1506.67   0.000572    2.89  0.000118  ( 0.009518  0.005277 -0.000054)
 86:   1535.40   0.001887    9.54  0.000384  (-0.017241  0.009193 -0.001340)
 87:   1547.58   0.013167   66.54  0.002655  (-0.023617  0.045581 -0.004439)
 88:   1573.38   0.006762   34.17  0.001341  ( 0.024201 -0.027318  0.003047)
 89:   1609.89   0.002167   10.95  0.000420  (-0.020205 -0.003410 -0.000470)
 90:   1622.28   0.000222    1.12  0.000043  (-0.005416  0.003617 -0.000479)
 91:   1635.41   0.151640  766.32  0.028935  (-0.094940  0.140393 -0.014546)
 92:   1656.37   0.002552   12.90  0.000481  ( 0.013456  0.017285 -0.000985)
 93:   1661.72   0.034270  173.19  0.006436  ( 0.041696 -0.068184  0.006943)
 94:   1672.49   0.006679   33.75  0.001246  ( 0.010742 -0.033501  0.002925)
 95:   1711.18   0.185305  936.45  0.033794  (-0.103352  0.151231 -0.015524)
 96:   2334.78   0.034308  173.38  0.004586  (-0.042722  0.052218 -0.005803)
 97:   3167.73   0.000356    1.80  0.000035  ( 0.005815 -0.001068  0.000296)
 98:   3171.46   0.000203    1.03  0.000020  ( 0.003863 -0.002228  0.000325)
 99:   3171.83   0.003696   18.68  0.000364  (-0.019014 -0.001332 -0.000592)
100:   3174.00   0.005732   28.97  0.000564  (-0.022054  0.008650 -0.001521)
101:   3175.83   0.000033    0.17  0.000003  ( 0.000574  0.001712 -0.000084)
102:   3178.23   0.000649    3.28  0.000064  (-0.003371 -0.007225  0.000428)
103:   3181.38   0.001814    9.17  0.000178  ( 0.009205 -0.009596  0.001065)
104:   3194.36   0.005485   27.72  0.000536  ( 0.006860  0.022060 -0.001462)
105:   3198.36   0.002521   12.74  0.000246  (-0.006336 -0.014321  0.000855)
106:   3199.85   0.000315    1.59  0.000031  ( 0.003691 -0.004105  0.000476)
107:   3218.05   0.003706   18.73  0.000359  ( 0.018736 -0.002741  0.000919)
108:   3221.47   0.002821   14.26  0.000273  (-0.015464  0.005752 -0.001039)
109:   3607.74   0.057366  289.91  0.004962  ( 0.043753 -0.054893  0.005875)
110:   3736.83   0.015242   77.03  0.001273  (-0.003471 -0.035409  0.002642)

--------------------------
THERMOCHEMISTRY AT 298.15K
--------------------------

Temperature         ... 298.15 K
Pressure            ... 1.00 atm
Total Mass          ... 294.36 AMU

Throughout the following assumptions are being made:
  (1) The electronic state is orbitally nondegenerate
  (2) There are no thermally accessible electronically excited states
  (3) Hindered rotations indicated by low frequency modes are not
      treated as such but are treated as vibrations and this may
      cause some error
  (4) All equations used are the standard statistical mechanics
      equations for an ideal gas
  (5) All vibrations are strictly harmonic

freq.      25.55  E(vib)   ...       0.56
freq.      62.20  E(vib)   ...       0.51
freq.      72.19  E(vib)   ...       0.50
freq.      99.26  E(vib)   ...       0.46
freq.     123.14  E(vib)   ...       0.43
freq.     141.69  E(vib)   ...       0.41
freq.     188.93  E(vib)   ...       0.36
freq.     219.46  E(vib)   ...       0.33
freq.     220.83  E(vib)   ...       0.33
freq.     256.34  E(vib)   ...       0.30
freq.     260.57  E(vib)   ...       0.30
freq.     284.02  E(vib)   ...       0.28
freq.     315.19  E(vib)   ...       0.25
freq.     348.38  E(vib)   ...       0.23
freq.     367.54  E(vib)   ...       0.21
freq.     420.60  E(vib)   ...       0.18
freq.     437.58  E(vib)   ...       0.17
freq.     447.52  E(vib)   ...       0.17
freq.     490.91  E(vib)   ...       0.14
freq.     495.97  E(vib)   ...       0.14
freq.     508.49  E(vib)   ...       0.14
freq.     512.53  E(vib)   ...       0.13
freq.     525.41  E(vib)   ...       0.13
freq.     529.72  E(vib)   ...       0.13
freq.     562.33  E(vib)   ...       0.11
freq.     563.67  E(vib)   ...       0.11
freq.     583.84  E(vib)   ...       0.11
freq.     620.15  E(vib)   ...       0.09
freq.     633.23  E(vib)   ...       0.09
freq.     679.29  E(vib)   ...       0.08
freq.     702.75  E(vib)   ...       0.07
freq.     716.69  E(vib)   ...       0.07
freq.     752.86  E(vib)   ...       0.06
freq.     762.91  E(vib)   ...       0.06
freq.     779.97  E(vib)   ...       0.05
freq.     812.49  E(vib)   ...       0.05
freq.     813.65  E(vib)   ...       0.05
freq.     825.91  E(vib)   ...       0.04
freq.     843.54  E(vib)   ...       0.04
freq.     853.04  E(vib)   ...       0.04
freq.     870.47  E(vib)   ...       0.04
freq.     882.01  E(vib)   ...       0.04
freq.     889.40  E(vib)   ...       0.04
freq.     944.37  E(vib)   ...       0.03
freq.     975.09  E(vib)   ...       0.03
freq.     978.04  E(vib)   ...       0.03
freq.     984.10  E(vib)   ...       0.02
freq.     989.89  E(vib)   ...       0.02
freq.    1000.07  E(vib)   ...       0.02
freq.    1000.26  E(vib)   ...       0.02
freq.    1009.49  E(vib)   ...       0.02
freq.    1013.79  E(vib)   ...       0.02
freq.    1037.93  E(vib)   ...       0.02
freq.    1056.46  E(vib)   ...       0.02
freq.    1119.40  E(vib)   ...       0.01
freq.    1133.64  E(vib)   ...       0.01
freq.    1181.83  E(vib)   ...       0.01
freq.    1189.11  E(vib)   ...       0.01
freq.    1204.39  E(vib)   ...       0.01
freq.    1211.47  E(vib)   ...       0.01
freq.    1242.80  E(vib)   ...       0.01
freq.    1260.77  E(vib)   ...       0.01
freq.    1265.71  E(vib)   ...       0.01
freq.    1272.15  E(vib)   ...       0.01
freq.    1280.99  E(vib)   ...       0.01
freq.    1296.85  E(vib)   ...       0.01
freq.    1332.46  E(vib)   ...       0.01
freq.    1333.92  E(vib)   ...       0.01
freq.    1335.73  E(vib)   ...       0.01
freq.    1372.35  E(vib)   ...       0.01
freq.    1385.38  E(vib)   ...       0.00
freq.    1404.94  E(vib)   ...       0.00
freq.    1412.39  E(vib)   ...       0.00
freq.    1425.27  E(vib)   ...       0.00
freq.    1444.19  E(vib)   ...       0.00
freq.    1468.42  E(vib)   ...       0.00
freq.    1506.67  E(vib)   ...       0.00
freq.    1535.40  E(vib)   ...       0.00
freq.    1547.58  E(vib)   ...       0.00
freq.    1573.38  E(vib)   ...       0.00
freq.    1609.89  E(vib)   ...       0.00
freq.    1622.28  E(vib)   ...       0.00
freq.    1635.41  E(vib)   ...       0.00
freq.    1656.37  E(vib)   ...       0.00
freq.    1661.72  E(vib)   ...       0.00
freq.    1672.49  E(vib)   ...       0.00
freq.    1711.18  E(vib)   ...       0.00
freq.    2334.78  E(vib)   ...       0.00
freq.    3167.73  E(vib)   ...       0.00
freq.    3171.46  E(vib)   ...       0.00
freq.    3171.83  E(vib)   ...       0.00
freq.    3174.00  E(vib)   ...       0.00
freq.    3175.83  E(vib)   ...       0.00
freq.    3178.23  E(vib)   ...       0.00
freq.    3181.38  E(vib)   ...       0.00
freq.    3194.36  E(vib)   ...       0.00
freq.    3198.36  E(vib)   ...       0.00
freq.    3199.85  E(vib)   ...       0.00
freq.    3218.05  E(vib)   ...       0.00
freq.    3221.47  E(vib)   ...       0.00
freq.    3607.74  E(vib)   ...       0.00
freq.    3736.83  E(vib)   ...       0.00

------------
INNER ENERGY
------------

The inner energy is: U= E(el) + E(ZPE) + E(vib) + E(rot) + E(trans)
    E(el)   - is the total energy from the electronic structure calculation
              = E(kin-el) + E(nuc-el) + E(el-el) + E(nuc-nuc)
    E(ZPE)  - the the zero temperature vibrational energy from the frequency calculation
    E(vib)  - the the finite temperature correction to E(ZPE) due to population
              of excited vibrational states
    E(rot)  - is the rotational thermal energy
    E(trans)- is the translational thermal energy

Summary of contributions to the inner energy U:
Electronic energy                ...   -916.94658011 Eh
Zero point energy                ...      0.28871232 Eh     181.17 kcal/mol
Thermal vibrational correction   ...      0.01350493 Eh       8.47 kcal/mol
Thermal rotational correction    ...      0.00141627 Eh       0.89 kcal/mol
Thermal translational correction ...      0.00141627 Eh       0.89 kcal/mol
-----------------------------------------------------------------------
Total thermal energy                   -916.64153032 Eh

Summary of corrections to the electronic energy:
(perhaps to be used in another calculation)
Total thermal correction                  0.01633747 Eh      10.25 kcal/mol
Non-thermal (ZPE) correction              0.28871232 Eh     181.17 kcal/mol
-----------------------------------------------------------------------
Total correction                          0.30504979 Eh     191.42 kcal/mol

--------
ENTHALPY
--------

The enthalpy is H = U + kB*T
                kB is Boltzmann's constant
Total free energy                 ...   -916.64153032 Eh
Thermal Enthalpy correction       ...      0.00094421 Eh       0.59 kcal/mol
-----------------------------------------------------------------------
Total Enthalpy                    ...   -916.64058611 Eh

Rotational constants in cm-1:     0.026215     0.003952     0.003434

                             ****ORCA TERMINATED NORMALLY****
TOTAL RUN TIME: 0 days 0 hours 30 minutes 32 seconds 335 msec
