                         Program Version 5.0.4 -  RELEASE  -
|  1> ! B3LYP def2-SVP Opt PAL8 FREQ defgrid3 slowconv VeryTightSCF
|  2> *xyz 0 1
|  3>  C        -7.228155        3.035785       -0.283960
|  4>  C        -5.971928        3.680617       -0.284338
|  5>  C        -4.785316        2.977870       -0.183455
|  6>  C        -4.786514        1.571783       -0.075141
|  7>  C        -3.572392        0.822771        0.028747
|  8>  C        -3.582064       -0.539618        0.133003
|  9>  C        -4.803258       -1.295232        0.145055
| 10>  C        -4.823718       -2.726475        0.253467
| 11>  C        -6.087325       -3.363989        0.251711
| 12>  C        -7.274096       -2.659421        0.156389
| 13>  C        -7.282622       -1.254901        0.049548
| 14>  C        -8.495321       -0.506578       -0.053486
| 15>  C        -8.492498        0.855855       -0.159878
| 16>  C        -7.267398        1.606992       -0.173355
| 17>  C        -6.033008        0.872058       -0.068902
| 18>  C        -6.035673       -0.560563        0.042211
| 19>  C        -8.457037        3.814742       -0.394545
| 20>  C        -3.591550       -3.497291        0.374274
| 21>  C        -8.569518        5.163746       -0.507940
| 22>  C        -3.496662       -4.849423        0.492188
| 23>  C        -9.833447        5.814771       -0.609706
| 24>  N        -2.333507       -5.571596        0.469422
| 25>  N       -10.857094        6.362132       -0.693725
| 26>  H        -5.928074        4.768302       -0.366184
| 27>  H        -3.830752        3.510841       -0.187068
| 28>  H        -2.623204        1.365695        0.022079
| 29>  H        -2.626345       -1.057752        0.206588
| 30>  H        -6.140596       -4.451974        0.325657
| 31>  H        -8.226691       -3.197052        0.160689
| 32>  H        -9.444681       -1.049880       -0.045922
| 33>  H        -9.449552        1.371014       -0.234877
| 34>  H        -9.396788        3.260582       -0.386461
| 35>  H        -2.647644       -2.948149        0.368714
| 36>  H        -7.696838        5.822560       -0.526836
| 37>  H        -4.392509       -5.476990        0.510627
| 38>  H        -2.370078       -6.524207        1.225634
| 39>  H        -1.447795       -5.079098        0.888239
| 40> *
| 41>
| 42>                          ****END OF INPUT****
 Total Charge           Charge          ....    0
 Multiplicity           Mult            ....    1
 Number of Electrons    NEL             ....  154
FINAL SINGLE POINT ENERGY      -916.917866271600
FINAL SINGLE POINT ENERGY      -916.940484375542
FINAL SINGLE POINT ENERGY      -916.942784908302
FINAL SINGLE POINT ENERGY      -916.945565669178
FINAL SINGLE POINT ENERGY      -916.946104520009
FINAL SINGLE POINT ENERGY      -916.946565851701
FINAL SINGLE POINT ENERGY      -916.946742221498
FINAL SINGLE POINT ENERGY      -916.946941300572
FINAL SINGLE POINT ENERGY      -916.947041654709
FINAL SINGLE POINT ENERGY      -916.947072674182
FINAL SINGLE POINT ENERGY      -916.947102876690
FINAL SINGLE POINT ENERGY      -916.947130676393
FINAL SINGLE POINT ENERGY      -916.947150518663
FINAL SINGLE POINT ENERGY      -916.947158047726
FINAL SINGLE POINT ENERGY      -916.947161740128
                    ***********************HURRAY********************

CARTESIAN COORDINATES (ANGSTROEM)
---------------------------------
  C     -7.224528    3.028884   -0.273779
  C     -5.967193    3.672112   -0.258684
  C     -4.782071    2.966838   -0.157569
  C     -4.785366    1.559348   -0.067128
  C     -3.572594    0.808786    0.050173
  C     -3.584828   -0.554992    0.134739
  C     -4.808046   -1.306524    0.101686
  C     -4.829733   -2.737079    0.177896
  C     -6.088711   -3.379322    0.161174
  C     -7.278529   -2.672459    0.087864
  C     -7.285575   -1.267213    0.002438
  C     -8.497740   -0.515174   -0.097802
  C     -8.492072    0.848002   -0.188138
  C     -7.265987    1.599357   -0.184271
  C     -6.033271    0.862133   -0.083320
  C     -6.038705   -0.571408    0.005010
  C     -8.452013    3.811385   -0.377197
  C     -3.595540   -3.515875    0.257693
  C     -8.562158    5.162161   -0.466650
  C     -3.498846   -4.784122    0.734218
  C     -9.824487    5.817085   -0.563156
  N     -2.373608   -5.568551    0.720135
  N    -10.845556    6.369802   -0.642570
  H     -5.921615    4.760652   -0.326830
  H     -3.827161    3.499046   -0.145804
  H     -2.624525    1.352986    0.078268
  H     -2.636650   -1.082183    0.241716
  H     -6.128447   -4.470691    0.172278
  H     -8.230765   -3.210414    0.071133
  H     -9.447739   -1.057276   -0.101886
  H     -9.448046    1.365232   -0.262918
  H     -9.392412    3.258342   -0.383999
  H     -2.673843   -3.045705   -0.097221
  H     -7.688588    5.820125   -0.469203
  H     -4.376504   -5.284782    1.156469
  H     -2.311604   -6.332157    1.381627
  H     -1.486594   -5.138422    0.482073

 Multiplicity           Mult            ....    1
 Number of Electrons    NEL             ....  154
 Basis Dimension        Dim             ....  392

ORBITAL ENERGIES
----------------

  NO   OCC          E(Eh)            E(eV)
   0   2.0000     -14.359486      -390.7415
   1   2.0000     -14.310122      -389.3982
   2   2.0000     -10.239439      -278.6293
   3   2.0000     -10.219249      -278.0799
   4   2.0000     -10.217269      -278.0260
   5   2.0000     -10.212254      -277.8896
   6   2.0000     -10.209584      -277.8169
   7   2.0000     -10.207375      -277.7568
   8   2.0000     -10.206627      -277.7364
   9   2.0000     -10.203700      -277.6568
  10   2.0000     -10.203396      -277.6485
  11   2.0000     -10.200994      -277.5832
  12   2.0000     -10.200239      -277.5626
  13   2.0000     -10.198496      -277.5152
  14   2.0000     -10.196762      -277.4680
  15   2.0000     -10.196194      -277.4525
  16   2.0000     -10.195670      -277.4383
  17   2.0000     -10.194969      -277.4192
  18   2.0000     -10.194924      -277.4180
  19   2.0000     -10.194563      -277.4082
  20   2.0000     -10.193276      -277.3731
  21   2.0000     -10.191299      -277.3193
  22   2.0000     -10.182257      -277.0733
  23   2.0000      -0.923228       -25.1223
  24   2.0000      -0.888800       -24.1855
  25   2.0000      -0.879815       -23.9410
  26   2.0000      -0.853325       -23.2201
  27   2.0000      -0.828827       -22.5535
  28   2.0000      -0.814176       -22.1549
  29   2.0000      -0.786182       -21.3931
  30   2.0000      -0.772977       -21.0338
  31   2.0000      -0.746240       -20.3062
  32   2.0000      -0.738030       -20.0828
  33   2.0000      -0.724582       -19.7169
  34   2.0000      -0.701105       -19.0780
  35   2.0000      -0.653272       -17.7764
  36   2.0000      -0.634602       -17.2684
  37   2.0000      -0.629255       -17.1229
  38   2.0000      -0.615028       -16.7358
  39   2.0000      -0.598399       -16.2833
  40   2.0000      -0.586140       -15.9497
  41   2.0000      -0.551473       -15.0063
  42   2.0000      -0.543630       -14.7929
  43   2.0000      -0.529317       -14.4034
  44   2.0000      -0.521180       -14.1820
  45   2.0000      -0.509092       -13.8531
  46   2.0000      -0.504304       -13.7228
  47   2.0000      -0.493253       -13.4221
  48   2.0000      -0.476889       -12.9768
  49   2.0000      -0.466906       -12.7052
  50   2.0000      -0.448748       -12.2111
  51   2.0000      -0.445629       -12.1262
  52   2.0000      -0.438568       -11.9340
  53   2.0000      -0.424120       -11.5409
  54   2.0000      -0.418594       -11.3905
  55   2.0000      -0.416783       -11.3412
  56   2.0000      -0.405438       -11.0325
  57   2.0000      -0.401401       -10.9227
  58   2.0000      -0.395666       -10.7666
  59   2.0000      -0.386976       -10.5301
  60   2.0000      -0.381840       -10.3904
  61   2.0000      -0.379680       -10.3316
  62   2.0000      -0.368219       -10.0197
  63   2.0000      -0.358987        -9.7685
  64   2.0000      -0.357989        -9.7414
  65   2.0000      -0.348093        -9.4721
  66   2.0000      -0.343738        -9.3536
  67   2.0000      -0.336936        -9.1685
  68   2.0000      -0.324338        -8.8257
  69   2.0000      -0.318377        -8.6635
  70   2.0000      -0.317900        -8.6505
  71   2.0000      -0.292351        -7.9553
  72   2.0000      -0.271314        -7.3828
  73   2.0000      -0.261553        -7.1172
  74   2.0000      -0.238449        -6.4885
  75   2.0000      -0.225904        -6.1472
  76   2.0000      -0.185995        -5.0612
  77   0.0000      -0.084680        -2.3043
  78   0.0000      -0.044753        -1.2178
  79   0.0000      -0.033194        -0.9033
  80   0.0000      -0.013238        -0.3602
  81   0.0000       0.011801         0.3211

MULLIKEN ATOMIC CHARGES
-----------------------
   0 C :    0.059090
   1 C :   -0.022568
   2 C :   -0.032373
   3 C :    0.071755
   4 C :   -0.012944
   5 C :   -0.032361
   6 C :    0.053633
   7 C :    0.085677
   8 C :   -0.046287
   9 C :   -0.025452
  10 C :    0.060918
  11 C :   -0.006712
  12 C :   -0.045931
  13 C :    0.084354
  14 C :    0.054415
  15 C :    0.066497
  16 C :    0.023385
  17 C :   -0.057546
  18 C :   -0.125522
  19 C :    0.025574
  20 C :   -0.099482
  21 N :   -0.097598
  22 N :    0.031461
  23 H :   -0.028388
  24 H :   -0.032705
  25 H :   -0.034709
  26 H :   -0.036469
  27 H :   -0.033424
  28 H :   -0.033012
  29 H :   -0.031433
  30 H :   -0.032231
  31 H :    0.002245
  32 H :   -0.029340
  33 H :    0.033403
  34 H :    0.004706
  35 H :    0.124486
  36 H :    0.114887
Sum of atomic charges:   -0.0000000

LOEWDIN ATOMIC CHARGES
----------------------
   0 C :   -0.040452
   1 C :   -0.006686
   2 C :   -0.024150
   3 C :   -0.007173
   4 C :   -0.022834
   5 C :   -0.009034
   6 C :   -0.022872
   7 C :   -0.000043
   8 C :   -0.030563
   9 C :   -0.011214
  10 C :   -0.029785
  11 C :   -0.005871
  12 C :   -0.030547
  13 C :    0.002470
  14 C :    0.001577
  15 C :    0.004634
  16 C :    0.033297
  17 C :   -0.116554
  18 C :   -0.079574
  19 C :    0.037122
  20 C :   -0.037689
  21 N :   -0.009579
  22 N :   -0.082426
  23 H :    0.027100
  24 H :    0.027504
  25 H :    0.027021
  26 H :    0.025233
  27 H :    0.022860
  28 H :    0.027221
  29 H :    0.028804
  30 H :    0.026418
  31 H :    0.035731
  32 H :    0.018673
  33 H :    0.042453
  34 H :    0.025215
  35 H :    0.077725
  36 H :    0.075985

  Mayer bond orders larger than 0.100000
B(  0-C ,  1-C ) :   1.3031 B(  0-C , 13-C ) :   1.2476 B(  0-C , 16-C ) :   1.1268
B(  1-C ,  2-C ) :   1.4055 B(  1-C , 23-H ) :   0.9758 B(  2-C ,  3-C ) :   1.2625
B(  2-C , 24-H ) :   0.9875 B(  3-C ,  4-C ) :   1.1675 B(  3-C , 14-C ) :   1.2418
B(  4-C ,  5-C ) :   1.5265 B(  4-C , 25-H ) :   0.9843 B(  5-C ,  6-C ) :   1.1753
B(  5-C , 26-H ) :   0.9753 B(  6-C ,  7-C ) :   1.2589 B(  6-C , 15-C ) :   1.2312
B(  7-C ,  8-C ) :   1.3125 B(  7-C , 17-C ) :   1.1232 B(  8-C ,  9-C ) :   1.3889
B(  8-C , 27-H ) :   0.9754 B(  9-C , 10-C ) :   1.2730 B(  9-C , 28-H ) :   0.9863
B( 10-C , 11-C ) :   1.1629 B( 10-C , 15-C ) :   1.2420 B( 11-C , 12-C ) :   1.5371
B( 11-C , 29-H ) :   0.9826 B( 12-C , 13-C ) :   1.1708 B( 12-C , 30-H ) :   0.9779
B( 13-C , 14-C ) :   1.2338 B( 14-C , 15-C ) :   1.2279 B( 16-C , 18-C ) :   1.7355
B( 16-C , 31-H ) :   0.9602 B( 17-C , 19-C ) :   1.6631 B( 17-C , 32-H ) :   0.9464
B( 18-C , 20-C ) :   1.1101 B( 18-C , 33-H ) :   0.9438 B( 19-C , 21-N ) :   1.2486
B( 19-C , 34-H ) :   0.9536 B( 20-C , 22-N ) :   2.9611 B( 21-N , 35-H ) :   0.9537
B( 21-N , 36-H ) :   0.9581

FINAL SINGLE POINT ENERGY      -916.947162245952

DIPOLE MOMENT
-------------
                                X             Y             Z
Electronic contribution:     -7.33463      10.69644      -1.42495
Nuclear contribution   :     10.12407     -13.77746       2.09473
                        -----------------------------------------
Total Dipole Moment    :      2.78944      -3.08102       0.66978
                        -----------------------------------------
Magnitude (a.u.)       :      4.20978
Magnitude (Debye)      :     10.70042

VIBRATIONAL FREQUENCIES
-----------------------

Scaling factor for frequencies =  1.000000000  (already applied!)

   0:         0.00 cm**-1
   1:         0.00 cm**-1
   2:         0.00 cm**-1
   3:         0.00 cm**-1
   4:         0.00 cm**-1
   5:         0.00 cm**-1
   6:       -44.05 cm**-1 ***imaginary mode***
   7:        25.41 cm**-1
   8:        57.49 cm**-1
   9:        70.76 cm**-1
  10:        96.15 cm**-1
  11:        99.66 cm**-1
  12:       118.73 cm**-1
  13:       145.38 cm**-1
  14:       195.02 cm**-1
  15:       219.49 cm**-1
  16:       220.64 cm**-1
  17:       255.80 cm**-1
  18:       265.44 cm**-1
  19:       287.21 cm**-1
  20:       312.35 cm**-1
  21:       343.81 cm**-1
  22:       367.78 cm**-1
  23:       378.01 cm**-1
  24:       419.93 cm**-1
  25:       441.27 cm**-1
  26:       449.71 cm**-1
  27:       492.80 cm**-1
  28:       501.02 cm**-1
  29:       509.90 cm**-1
  30:       514.32 cm**-1
  31:       526.54 cm**-1
  32:       531.18 cm**-1
  33:       561.65 cm**-1
  34:       565.29 cm**-1
  35:       582.79 cm**-1
  36:       619.68 cm**-1
  37:       632.39 cm**-1
  38:       678.32 cm**-1
  39:       702.38 cm**-1
  40:       717.90 cm**-1
  41:       753.71 cm**-1
  42:       763.81 cm**-1
  43:       780.28 cm**-1
  44:       813.81 cm**-1
  45:       815.18 cm**-1
  46:       827.12 cm**-1
  47:       842.28 cm**-1
  48:       853.42 cm**-1
  49:       871.94 cm**-1
  50:       882.41 cm**-1
  51:       888.35 cm**-1
  52:       942.05 cm**-1
  53:       970.70 cm**-1
  54:       983.42 cm**-1
  55:       984.58 cm**-1
  56:       992.51 cm**-1
  57:       999.38 cm**-1
  58:      1001.06 cm**-1
  59:      1010.90 cm**-1
  60:      1014.43 cm**-1
  61:      1039.75 cm**-1
  62:      1072.02 cm**-1
  63:      1120.51 cm**-1
  64:      1132.79 cm**-1
  65:      1179.15 cm**-1
  66:      1187.06 cm**-1
  67:      1201.34 cm**-1
  68:      1210.68 cm**-1
  69:      1241.38 cm**-1
  70:      1258.27 cm**-1
  71:      1264.48 cm**-1
  72:      1270.99 cm**-1
  73:      1280.47 cm**-1
  74:      1291.04 cm**-1
  75:      1326.73 cm**-1
  76:      1331.04 cm**-1
  77:      1335.08 cm**-1
  78:      1371.87 cm**-1
  79:      1380.62 cm**-1
  80:      1405.59 cm**-1
  81:      1410.87 cm**-1
  82:      1424.59 cm**-1
  83:      1442.28 cm**-1
  84:      1466.98 cm**-1
  85:      1505.10 cm**-1
  86:      1534.95 cm**-1
  87:      1546.31 cm**-1
  88:      1572.97 cm**-1
  89:      1613.49 cm**-1
  90:      1622.39 cm**-1
  91:      1636.19 cm**-1
  92:      1655.48 cm**-1
  93:      1662.11 cm**-1
  94:      1673.43 cm**-1
  95:      1712.21 cm**-1
  96:      2335.40 cm**-1
  97:      3159.44 cm**-1
  98:      3167.75 cm**-1
  99:      3170.75 cm**-1
 100:      3172.78 cm**-1
 101:      3173.11 cm**-1
 102:      3174.92 cm**-1
 103:      3178.29 cm**-1
 104:      3191.84 cm**-1
 105:      3198.67 cm**-1
 106:      3200.07 cm**-1
 107:      3213.56 cm**-1
 108:      3221.54 cm**-1
 109:      3572.33 cm**-1
 110:      3688.52 cm**-1

IR SPECTRUM
-----------

 Mode   freq       eps      Int      T**2         TX        TY        TZ
       cm**-1   L/(mol*cm) km/mol    a.u.
----------------------------------------------------------------------------
  7:     25.41   0.000035    0.18  0.000428  ( 0.007923 -0.016749  0.009188)
  8:     57.49   0.000896    4.53  0.004862  (-0.010884  0.042337  0.054321)
  9:     70.76   0.000113    0.57  0.000497  ( 0.018483  0.012447  0.000405)
 10:     96.15   0.002142   10.82  0.006951  (-0.009535 -0.081432  0.015123)
 11:     99.66   0.000214    1.08  0.000671  ( 0.009228 -0.020503  0.012882)
 12:    118.73   0.000235    1.19  0.000617  (-0.015994 -0.009552 -0.016437)
 13:    145.38   0.000313    1.58  0.000672  ( 0.002913 -0.025696  0.001911)
 14:    195.02   0.002042   10.32  0.003268  ( 0.003093 -0.040151  0.040571)
 15:    219.49   0.000405    2.05  0.000576  (-0.012418 -0.000859  0.020522)
 16:    220.64   0.000670    3.38  0.000947  ( 0.011229 -0.007998  0.027519)
 17:    255.80   0.000190    0.96  0.000232  (-0.015031 -0.002487  0.000340)
 18:    265.44   0.000195    0.98  0.000229  (-0.001275  0.014596  0.003785)
 19:    287.21   0.001518    7.67  0.001650  ( 0.011515 -0.038948 -0.000042)
 20:    312.35   0.007371   37.25  0.007364  (-0.037152  0.075924  0.014813)
 21:    343.81   0.009995   50.51  0.009072  (-0.023477  0.088845  0.025044)
 22:    367.78   0.003181   16.08  0.002699  (-0.017422  0.048934 -0.001054)
 23:    378.01   0.078587  397.14  0.064877  ( 0.081901 -0.227507 -0.080061)
 24:    419.93   0.004537   22.93  0.003372  (-0.030082  0.049618  0.002178)
 25:    441.27   0.006742   34.07  0.004768  (-0.031489  0.060208  0.012296)
 26:    449.71   0.000054    0.27  0.000038  (-0.000631 -0.002934 -0.005339)
 27:    492.80   0.002559   12.93  0.001620  ( 0.020049 -0.034893  0.000880)
 28:    501.02   0.020672  104.47  0.012876  ( 0.053978 -0.084787 -0.052663)
 29:    509.90   0.001185    5.99  0.000725  (-0.014222  0.016919  0.015382)
 30:    514.32   0.000478    2.42  0.000290  (-0.005377  0.016093  0.001480)
 31:    526.54   0.000182    0.92  0.000108  (-0.000079 -0.009391  0.004443)
 32:    531.18   0.000905    4.57  0.000531  (-0.000421 -0.023018  0.001179)
 33:    561.65   0.000062    0.31  0.000035  (-0.001321  0.004481 -0.003569)
 34:    565.29   0.000072    0.36  0.000039  ( 0.002897 -0.005177 -0.002070)
 35:    582.79   0.000723    3.65  0.000387  ( 0.007502 -0.008806 -0.015913)
 36:    619.68   0.001223    6.18  0.000616  ( 0.008530 -0.022984  0.003871)
 37:    632.39   0.000068    0.34  0.000033  ( 0.002786 -0.004819  0.001560)
 38:    678.32   0.000276    1.39  0.000127  ( 0.005494 -0.008072 -0.005618)
 39:    702.38   0.000305    1.54  0.000135  ( 0.007350 -0.008890  0.001545)
 40:    717.90   0.001045    5.28  0.000454  ( 0.003169 -0.005074 -0.020460)
 41:    753.71   0.002373   11.99  0.000982  ( 0.002887 -0.002103 -0.031140)
 42:    763.81   0.000464    2.34  0.000189  ( 0.003977 -0.005009  0.012188)
 43:    780.28   0.000092    0.46  0.000037  ( 0.004063 -0.004487 -0.000221)
 44:    813.81   0.005448   27.53  0.002089  (-0.019408  0.041333 -0.002057)
 45:    815.18   0.000322    1.63  0.000123  (-0.001191 -0.003599 -0.010437)
 46:    827.12   0.000511    2.58  0.000193  (-0.003972 -0.008668  0.010087)
 47:    842.28   0.003560   17.99  0.001319  (-0.006068 -0.002836 -0.035697)
 48:    853.42   0.000110    0.56  0.000040  ( 0.001033  0.000180 -0.006261)
 49:    871.94   0.006204   31.35  0.002221  (-0.005826  0.002935 -0.046669)
 50:    882.41   0.000780    3.94  0.000276  ( 0.010237 -0.009046 -0.009445)
 51:    888.35   0.005299   26.78  0.001862  (-0.005354  0.005101  0.042508)
 52:    942.05   0.000818    4.14  0.000271  (-0.002421  0.002816 -0.016041)
 53:    970.70   0.012815   64.76  0.004120  (-0.031986  0.035446 -0.042898)
 54:    983.42   0.001409    7.12  0.000447  (-0.007384  0.019571  0.003103)
 55:    984.58   0.004268   21.57  0.001353  (-0.002765  0.008034  0.035786)
 56:    992.51   0.000054    0.27  0.000017  ( 0.001292  0.003447  0.001876)
 57:    999.38   0.001301    6.57  0.000406  (-0.012196  0.015794  0.002829)
 58:   1001.06   0.001511    7.64  0.000471  ( 0.003884 -0.005057  0.020745)
 59:   1010.90   0.000073    0.37  0.000023  ( 0.000274 -0.001712 -0.004417)
 60:   1014.43   0.000008    0.04  0.000002  (-0.001052  0.000753  0.000810)
 61:   1039.75   0.000122    0.62  0.000037  (-0.005918  0.000821  0.000986)
 62:   1072.02   0.003265   16.50  0.000950  (-0.009603  0.029275 -0.001082)
 63:   1120.51   0.000233    1.18  0.000065  ( 0.001546 -0.007888  0.000527)
 64:   1132.79   0.000119    0.60  0.000033  ( 0.003728 -0.004247  0.000987)
 65:   1179.15   0.000199    1.01  0.000053  ( 0.000963 -0.007015  0.001624)
 66:   1187.06   0.000054    0.28  0.000014  ( 0.002963 -0.002337 -0.000284)
 67:   1201.34   0.001452    7.34  0.000377  (-0.002871 -0.019187  0.000898)
 68:   1210.68   0.003904   19.73  0.001006  ( 0.031153 -0.005520  0.002277)
 69:   1241.38   0.012602   63.69  0.003168  ( 0.035073 -0.043570  0.006286)
 70:   1258.27   0.067173  339.47  0.016660  ( 0.061780 -0.112506  0.013608)
 71:   1264.48   0.014409   72.82  0.003556  (-0.027767  0.052560 -0.004730)
 72:   1270.99   0.001027    5.19  0.000252  ( 0.007968 -0.013733  0.000356)
 73:   1280.47   0.001218    6.15  0.000297  ( 0.014674 -0.009015  0.000401)
 74:   1291.04   0.008935   45.15  0.002160  (-0.031088  0.033816 -0.007046)
 75:   1326.73   0.018155   91.75  0.004270  ( 0.032308 -0.055887  0.010151)
 76:   1331.04   0.004394   22.20  0.001030  ( 0.009267 -0.030410  0.004411)
 77:   1335.08   0.000463    2.34  0.000108  ( 0.003937  0.009201 -0.002846)
 78:   1371.87   0.000040    0.20  0.000009  (-0.000133 -0.003015  0.000154)
 79:   1380.62   0.004002   20.23  0.000905  ( 0.025966 -0.015021  0.002173)
 80:   1405.59   0.000559    2.82  0.000124  ( 0.002834 -0.010725  0.000999)
 81:   1410.87   0.001092    5.52  0.000242  (-0.006533  0.014056 -0.001136)
 82:   1424.59   0.004015   20.29  0.000879  ( 0.005144 -0.029083  0.002669)
 83:   1442.28   0.001839    9.30  0.000398  ( 0.011548 -0.016121  0.002173)
 84:   1466.98   0.001352    6.83  0.000288  ( 0.013601 -0.010074  0.001092)
 85:   1505.10   0.000534    2.70  0.000111  ( 0.009853  0.003689 -0.000055)
 86:   1534.95   0.002233   11.29  0.000454  (-0.018335  0.010595 -0.002372)
 87:   1546.31   0.008913   45.04  0.001799  (-0.018870  0.037783 -0.003888)
 88:   1572.97   0.005955   30.09  0.001181  ( 0.022366 -0.025891  0.003296)
 89:   1613.49   0.002558   12.93  0.000495  (-0.014828 -0.015775 -0.005104)
 90:   1622.39   0.000308    1.55  0.000059  ( 0.006799 -0.001486  0.003276)
 91:   1636.19   0.109110  551.40  0.020810  (-0.082404  0.117447 -0.015023)
 92:   1655.48   0.005379   27.18  0.001014  ( 0.004517  0.031517 -0.000504)
 93:   1662.11   0.030004  151.63  0.005633  ( 0.040375 -0.062834  0.007420)
 94:   1673.43   0.003889   19.65  0.000725  ( 0.007485 -0.025551  0.004045)
 95:   1712.21   0.147948  747.67  0.026965  (-0.093026  0.133364 -0.022912)
 96:   2335.40   0.032355  163.51  0.004323  (-0.041440  0.050772 -0.005314)
 97:   3159.44   0.004164   21.04  0.000411  (-0.016320  0.012039 -0.000052)
 98:   3167.75   0.002908   14.70  0.000287  (-0.016227  0.004244  0.002281)
 99:   3170.75   0.000955    4.83  0.000094  ( 0.009358  0.000420 -0.002501)
100:   3172.78   0.000626    3.17  0.000062  (-0.005675  0.005422  0.000093)
101:   3173.11   0.001684    8.51  0.000166  (-0.012578 -0.002042 -0.001793)
102:   3174.92   0.002521   12.74  0.000248  ( 0.015186 -0.003839  0.001544)
103:   3178.29   0.000706    3.57  0.000069  (-0.004112 -0.007240  0.000144)
104:   3191.84   0.004311   21.79  0.000421  ( 0.005722  0.019692 -0.000989)
105:   3198.67   0.002488   12.58  0.000243  (-0.006308 -0.014229  0.000715)
106:   3200.07   0.000295    1.49  0.000029  ( 0.003591 -0.003956  0.000433)
107:   3213.56   0.002853   14.42  0.000277  ( 0.016512 -0.002053  0.000432)
108:   3221.54   0.002861   14.46  0.000277  (-0.015605  0.005692 -0.001122)
109:   3572.33   0.029822  150.71  0.002605  ( 0.032739 -0.037395  0.011612)
110:   3688.52   0.007882   39.83  0.000667  (-0.004560 -0.021367  0.013764)

--------------------------
THERMOCHEMISTRY AT 298.15K
--------------------------

Temperature         ... 298.15 K
Pressure            ... 1.00 atm
Total Mass          ... 294.36 AMU

Throughout the following assumptions are being made:
  (1) The electronic state is orbitally nondegenerate
  (2) There are no thermally accessible electronically excited states
  (3) Hindered rotations indicated by low frequency modes are not
      treated as such but are treated as vibrations and this may
      cause some error
  (4) All equations used are the standard statistical mechanics
      equations for an ideal gas
  (5) All vibrations are strictly harmonic

freq.      25.41  E(vib)   ...       0.56
freq.      57.49  E(vib)   ...       0.51
freq.      70.76  E(vib)   ...       0.50
freq.      96.15  E(vib)   ...       0.47
freq.      99.66  E(vib)   ...       0.46
freq.     118.73  E(vib)   ...       0.44
freq.     145.38  E(vib)   ...       0.41
freq.     195.02  E(vib)   ...       0.36
freq.     219.49  E(vib)   ...       0.33
freq.     220.64  E(vib)   ...       0.33
freq.     255.80  E(vib)   ...       0.30
freq.     265.44  E(vib)   ...       0.29
freq.     287.21  E(vib)   ...       0.27
freq.     312.35  E(vib)   ...       0.25
freq.     343.81  E(vib)   ...       0.23
freq.     367.78  E(vib)   ...       0.21
freq.     378.01  E(vib)   ...       0.21
freq.     419.93  E(vib)   ...       0.18
freq.     441.27  E(vib)   ...       0.17
freq.     449.71  E(vib)   ...       0.17
freq.     492.80  E(vib)   ...       0.14
freq.     501.02  E(vib)   ...       0.14
freq.     509.90  E(vib)   ...       0.14
freq.     514.32  E(vib)   ...       0.13
freq.     526.54  E(vib)   ...       0.13
freq.     531.18  E(vib)   ...       0.13
freq.     561.65  E(vib)   ...       0.11
freq.     565.29  E(vib)   ...       0.11
freq.     582.79  E(vib)   ...       0.11
freq.     619.68  E(vib)   ...       0.09
freq.     632.39  E(vib)   ...       0.09
freq.     678.32  E(vib)   ...       0.08
freq.     702.38  E(vib)   ...       0.07
freq.     717.90  E(vib)   ...       0.07
freq.     753.71  E(vib)   ...       0.06
freq.     763.81  E(vib)   ...       0.06
freq.     780.28  E(vib)   ...       0.05
freq.     813.81  E(vib)   ...       0.05
freq.     815.18  E(vib)   ...       0.05
freq.     827.12  E(vib)   ...       0.04
freq.     842.28  E(vib)   ...       0.04
freq.     853.42  E(vib)   ...       0.04
freq.     871.94  E(vib)   ...       0.04
freq.     882.41  E(vib)   ...       0.04
freq.     888.35  E(vib)   ...       0.04
freq.     942.05  E(vib)   ...       0.03
freq.     970.70  E(vib)   ...       0.03
freq.     983.42  E(vib)   ...       0.02
freq.     984.58  E(vib)   ...       0.02
freq.     992.51  E(vib)   ...       0.02
freq.     999.38  E(vib)   ...       0.02
freq.    1001.06  E(vib)   ...       0.02
freq.    1010.90  E(vib)   ...       0.02
freq.    1014.43  E(vib)   ...       0.02
freq.    1039.75  E(vib)   ...       0.02
freq.    1072.02  E(vib)   ...       0.02
freq.    1120.51  E(vib)   ...       0.01
freq.    1132.79  E(vib)   ...       0.01
freq.    1179.15  E(vib)   ...       0.01
freq.    1187.06  E(vib)   ...       0.01
freq.    1201.34  E(vib)   ...       0.01
freq.    1210.68  E(vib)   ...       0.01
freq.    1241.38  E(vib)   ...       0.01
freq.    1258.27  E(vib)   ...       0.01
freq.    1264.48  E(vib)   ...       0.01
freq.    1270.99  E(vib)   ...       0.01
freq.    1280.47  E(vib)   ...       0.01
freq.    1291.04  E(vib)   ...       0.01
freq.    1326.73  E(vib)   ...       0.01
freq.    1331.04  E(vib)   ...       0.01
freq.    1335.08  E(vib)   ...       0.01
freq.    1371.87  E(vib)   ...       0.01
freq.    1380.62  E(vib)   ...       0.01
freq.    1405.59  E(vib)   ...       0.00
freq.    1410.87  E(vib)   ...       0.00
freq.    1424.59  E(vib)   ...       0.00
freq.    1442.28  E(vib)   ...       0.00
freq.    1466.98  E(vib)   ...       0.00
freq.    1505.10  E(vib)   ...       0.00
freq.    1534.95  E(vib)   ...       0.00
freq.    1546.31  E(vib)   ...       0.00
freq.    1572.97  E(vib)   ...       0.00
freq.    1613.49  E(vib)   ...       0.00
freq.    1622.39  E(vib)   ...       0.00
freq.    1636.19  E(vib)   ...       0.00
freq.    1655.48  E(vib)   ...       0.00
freq.    1662.11  E(vib)   ...       0.00
freq.    1673.43  E(vib)   ...       0.00
freq.    1712.21  E(vib)   ...       0.00
freq.    2335.40  E(vib)   ...       0.00
freq.    3159.44  E(vib)   ...       0.00
freq.    3167.75  E(vib)   ...       0.00
freq.    3170.75  E(vib)   ...       0.00
freq.    3172.78  E(vib)   ...       0.00
freq.    3173.11  E(vib)   ...       0.00
freq.    3174.92  E(vib)   ...       0.00
freq.    3178.29  E(vib)   ...       0.00
freq.    3191.84  E(vib)   ...       0.00
freq.    3198.67  E(vib)   ...       0.00
freq.    3200.07  E(vib)   ...       0.00
freq.    3213.56  E(vib)   ...       0.00
freq.    3221.54  E(vib)   ...       0.00
freq.    3572.33  E(vib)   ...       0.00
freq.    3688.52  E(vib)   ...       0.00

------------
INNER ENERGY
------------

The inner energy is: U= E(el) + E(ZPE) + E(vib) + E(rot) + E(trans)
    E(el)   - is the total energy from the electronic structure calculation
              = E(kin-el) + E(nuc-el) + E(el-el) + E(nuc-nuc)
    E(ZPE)  - the the zero temperature vibrational energy from the frequency calculation
    E(vib)  - the the finite temperature correction to E(ZPE) due to population
              of excited vibrational states
    E(rot)  - is the rotational thermal energy
    E(trans)- is the translational thermal energy

Summary of contributions to the inner energy U:
Electronic energy                ...   -916.94716225 Eh
Zero point energy                ...      0.28954759 Eh     181.69 kcal/mol
Thermal vibrational correction   ...      0.01456560 Eh       9.14 kcal/mol
Thermal rotational correction    ...      0.00141627 Eh       0.89 kcal/mol
Thermal translational correction ...      0.00141627 Eh       0.89 kcal/mol
-----------------------------------------------------------------------
Total thermal energy                   -916.64021651 Eh

Summary of corrections to the electronic energy:
(perhaps to be used in another calculation)
Total thermal correction                  0.01739815 Eh      10.92 kcal/mol
Non-thermal (ZPE) correction              0.28954759 Eh     181.69 kcal/mol
-----------------------------------------------------------------------
Total correction                          0.30694574 Eh     192.61 kcal/mol

--------
ENTHALPY
--------

The enthalpy is H = U + kB*T
                kB is Boltzmann's constant
Total free energy                 ...   -916.64021651 Eh
Thermal Enthalpy correction       ...      0.00094421 Eh       0.59 kcal/mol

Rotational constants in cm-1:     0.026147     0.003960     0.003443

                             ****ORCA TERMINATED NORMALLY****
TOTAL RUN TIME: 0 days 1 hours 5 minutes 28 seconds 641 msec
