 Gaussian 16, Revision C.01,
 Gaussian 16:  ES64L-G16RevC.01  3-Jul-2019

 --------------------------
 #P mp2/cc-pvdz polar=Cubic
 --------------------------

 --
 p1
 --
 Symbolic Z-matrix:
 Charge =  0 Multiplicity = 1

                         Standard orientation:
 ---------------------------------------------------------------------
 Center     Atomic      Atomic             Coordinates (Angstroms)
 Number     Number       Type             X           Y           Z
 ---------------------------------------------------------------------
      1          6           0       -2.470076    0.512615    0.000680
      2          6           0       -2.388163    1.923727    0.001918
      3          6           0       -1.175296    2.586384   -0.007109
      4          6           0        0.039501    1.867681   -0.020649
      5          6           0        1.306855    2.531181   -0.018751
      6          6           0        2.478695    1.827461   -0.034670
      7          6           0        2.502935    0.392412   -0.062743
      8          6           0        3.726732   -0.353002   -0.091208
      9          6           0        3.638596   -1.764120   -0.093155
     10          6           0        2.423694   -2.429327   -0.056140
     11          6           0        1.206356   -1.721636   -0.037406
     12          6           0       -0.060692   -2.383912   -0.022400
     13          6           0       -1.236057   -1.686708   -0.012269
     14          6           0       -1.257074   -0.250038   -0.013230
     15          6           0        0.006774    0.438371   -0.027180
     16          6           0        1.241331   -0.294422   -0.044523
     17          6           0       -3.765478   -0.148905    0.014584
     18          6           0        5.025653    0.314304   -0.130125
     19          6           0       -4.982481    0.430940    0.030504
     20          6           0        6.207722   -0.249558    0.231784
     21          7           0        7.446314    0.323714    0.107219
     22          7           0       -6.183136   -0.386088    0.043593
     23          8           0       -7.245243    0.227210    0.059213
     24          8           0       -6.083605   -1.607447    0.038324
     25          1           0       -3.307857    2.511902    0.011957
     26          1           0       -1.147456    3.679189   -0.002805
     27          1           0        1.322368    3.624299    0.002664
     28          1           0        3.419756    2.377338   -0.014171
     29          1           0        4.555418   -2.353707   -0.159750
     30          1           0        2.402024   -3.522859   -0.065540
     31          1           0       -0.076691   -3.477547   -0.019731
     32          1           0       -2.172413   -2.243604   -0.001681
     33          1           0       -3.798702   -1.239558    0.012577
     34          1           0        5.055134    1.349832   -0.480768
     35          1           0       -5.221987    1.491999    0.036107
     36          1           0        6.233951   -1.263525    0.644291
     37          1           0        8.200759   -0.022994    0.685838
     38          1           0        7.507087    1.307059   -0.132439
 ---------------------------------------------------------------------

 SCF Done:  E(RHF) =  -1024.10041815     A.U. after   18 cycles
 E2 =    -0.3308317766D+01 EUMP2 =    -0.10274087359183D+04
 E2 =    -0.3308317766D+01 EUMP2 =    -0.10274087359183D+04
 SCF Done:  E(RHF) =  -1024.09895437     A.U. after   11 cycles
 E2 =    -0.3308668937D+01 EUMP2 =    -0.10274076233078D+04
 E2 =    -0.3308668937D+01 EUMP2 =    -0.10274076233078D+04
 SCF Done:  E(RHF) =  -1024.10194467     A.U. after   11 cycles
 E2 =    -0.3307965905D+01 EUMP2 =    -0.10274099105793D+04
 E2 =    -0.3307965905D+01 EUMP2 =    -0.10274099105793D+04
 SCF Done:  E(RHF) =  -1024.10016337     A.U. after   11 cycles
 E2 =    -0.3308308301D+01 EUMP2 =    -0.10274084716718D+04
 E2 =    -0.3308308301D+01 EUMP2 =    -0.10274084716718D+04
 SCF Done:  E(RHF) =  -1024.10070095     A.U. after   11 cycles
 E2 =    -0.3308328063D+01 EUMP2 =    -0.10274090290152D+04
 E2 =    -0.3308328063D+01 EUMP2 =    -0.10274090290152D+04
 SCF Done:  E(RHF) =  -1024.10031359     A.U. after    9 cycles
 E2 =    -0.3308328084D+01 EUMP2 =    -0.10274086416750D+04
 E2 =    -0.3308328084D+01 EUMP2 =    -0.10274086416750D+04
 SCF Done:  E(RHF) =  -1024.10053168     A.U. after    9 cycles
 E2 =    -0.3308307312D+01 EUMP2 =    -0.10274088389937D+04
 E2 =    -0.3308307312D+01 EUMP2 =    -0.10274088389937D+04

 Alpha  occ. eigenvalues --  -20.58026 -20.57692 -15.83129 -15.59437 -11.30655
 Alpha  occ. eigenvalues --  -11.29125 -11.28969 -11.27777 -11.27245 -11.26978
 Alpha  occ. eigenvalues --  -11.26737 -11.26442 -11.26399 -11.26304 -11.26021
 Alpha  occ. eigenvalues --  -11.25998 -11.25843 -11.25800 -11.25330 -11.25264
 Alpha  occ. eigenvalues --  -11.25203 -11.25114 -11.24805 -11.23273  -1.58715
 Alpha  occ. eigenvalues --   -1.37922  -1.23824  -1.21014  -1.16725  -1.13699
 Alpha  occ. eigenvalues --   -1.12646  -1.09248  -1.06570  -1.03387  -1.02768
 Alpha  occ. eigenvalues --   -1.00329  -0.97853  -0.93835  -0.87515  -0.86907
 Alpha  occ. eigenvalues --   -0.85795  -0.84052  -0.80691  -0.79546  -0.75961
 Alpha  occ. eigenvalues --   -0.74137  -0.73245  -0.72229  -0.70729  -0.70455
 Alpha  occ. eigenvalues --   -0.69773  -0.69748  -0.67416  -0.65849  -0.64843
 Alpha  occ. eigenvalues --   -0.62914  -0.61912  -0.61155  -0.59483  -0.58400
 Alpha  occ. eigenvalues --   -0.57140  -0.57126  -0.56865  -0.56281  -0.54587
 Alpha  occ. eigenvalues --   -0.53938  -0.52629  -0.51217  -0.50818  -0.48741
 Alpha  occ. eigenvalues --   -0.47748  -0.47528  -0.47127  -0.46740  -0.44636
 Alpha  occ. eigenvalues --   -0.43081  -0.40197  -0.37897  -0.35266  -0.32135
 Alpha  occ. eigenvalues --   -0.30553  -0.24716
 Alpha virt. eigenvalues --    0.01892   0.07350   0.08621   0.12061   0.14004
 Alpha virt. eigenvalues --    0.16482   0.17271   0.17758   0.18114   0.18689
 Alpha virt. eigenvalues --    0.19461   0.19904   0.20735   0.21647   0.23206

 Mulliken charges:
               1
     1  C   -0.038951
     2  C   -0.008074
     3  C    0.058784
     4  C   -0.080020
     5  C    0.065096
     6  C   -0.006265
     7  C   -0.034642
     8  C   -0.043596
     9  C    0.010798
    10  C    0.028159
    11  C   -0.055497
    12  C    0.048839
    13  C    0.000296
    14  C   -0.039408
    15  C    0.012499
    16  C   -0.007857
    17  C    0.004046
    18  C   -0.062366
    19  C    0.106965
    20  C    0.038419
    21  N   -0.146074
    22  N    0.183522
    23  O   -0.229980
    24  O   -0.232203
    25  H    0.009686
    26  H    0.007561
    27  H    0.003227
    28  H    0.007615
    29  H    0.007940
    30  H    0.001625
    31  H    0.003510
    32  H    0.019631
    33  H    0.048131
    34  H    0.008117
    35  H    0.042280
    36  H    0.033823
    37  H    0.122952
    38  H    0.111413
 Sum of Mulliken charges =  -0.00000

 Dipole moment (field-independent basis, Debye):
    X=              8.7222    Y=              2.1236    Z=              0.8188  Tot=              9.0143
 Quadrupole moment (field-independent basis, Debye-Ang):
   XX=           -132.9581   YY=           -124.9404   ZZ=           -145.5004
   XY=             -5.1203   XZ=              7.1159   YZ=             -1.2357

  Exact polarizability:     558.243     -19.161     259.548       2.716      -2.440      79.392
 Approx polarizability:     406.102     -32.052     274.037       1.311      -2.599     102.359

 1\1\GINC-N1532\SP\RMP2-FC\CC-pVDZ\C20H14N2O2\KA_PR7831\14-Aug-2025\0\\
 #P mp2/cc-pvdz polar=Cubic\\p1\\0,1\C,0,-7.1170523,2.8813039,-0.257468
 7\C,0,-5.8585338,3.5246054,-0.2419277\C,0,-4.6759319,2.8165593,-0.1401
 091\C,0,-4.6838196,1.4079505,-0.049515\C,0,-3.4736019,0.6543054,0.0680
 186\C,0,-3.4900693,-0.7099798,0.1525104\C,0,-4.7144884,-1.4586122,0.11
 95282\C,0,-4.7401562,-2.8895691,0.1959212\C,0,-6.0017785,-3.5275768,0.
 1791213\C,0,-7.1889783,-2.8170017,0.104987\C,0,-7.1921251,-1.4113938,0
 .0192863\C,0,-8.4019629,-0.6561424,-0.0813763\C,0,-8.3926061,0.7074489

 Normal termination of Gaussian 16 at Thu Aug 14 09:39:38 2025.
