                         Program Version 5.0.4 -  RELEASE  -
|  1> ! B3LYP def2-SVP Opt PAL8 FREQ defgrid3 slowconv VeryTightSCF
|  2> *xyz 0 1
|  3>  C        -7.210739        2.885025       -0.200641
|  4>  C        -5.950182        3.521704       -0.205524
|  5>  C        -4.766227        2.808122       -0.151264
|  6>  C        -4.774662        1.399911       -0.082159
|  7>  C        -3.562930        0.641814        0.002012
|  8>  C        -3.579659       -0.722004        0.076110
|  9>  C        -4.809962       -1.464253        0.061855
| 10>  C        -4.840919       -2.891750        0.131189
| 11>  C        -6.097860       -3.532736        0.123258
| 12>  C        -7.287430       -2.820811        0.067140
| 13>  C        -7.287688       -1.415571       -0.003930
| 14>  C        -8.498340       -0.656567       -0.089305
| 15>  C        -8.486292        0.706981       -0.161744
| 16>  C        -7.256874        1.454582       -0.143281
| 17>  C        -6.026738        0.710365       -0.079222
| 18>  C        -6.038381       -0.723607       -0.009137
| 19>  C        -8.438128        3.677428       -0.227441
| 20>  C        -3.604470       -3.677057        0.194061
| 21>  C        -8.534240        5.012412       -0.575022
| 22>  C        -3.494309       -4.905685        0.735694
| 23>  C        -9.796930        5.683308       -0.527916
| 24>  O        -2.325071       -5.588552        0.713670
| 25>  N       -10.817535        6.248415       -0.500121
| 26>  H        -5.901540        4.613227       -0.216977
| 27>  H        -3.809023        3.336210       -0.142227
| 28>  H        -2.611665        1.180898        0.013126
| 29>  H        -2.633653       -1.257869        0.156512
| 30>  H        -6.136959       -4.624308        0.126247
| 31>  H        -8.241940       -3.354504        0.054129
| 32>  H        -9.450493       -1.194776       -0.101796
| 33>  H        -9.439671        1.228254       -0.245815
| 34>  H        -9.389102        3.147612        0.075724
| 35>  H        -2.686599       -3.252992       -0.220784
| 36>  H        -7.648078        5.643930       -0.928711
| 37>  H        -4.339022       -5.403719        1.227030
| 38>  H        -2.415913       -6.411530        1.208530
| 39> *
| 40>
| 41>                          ****END OF INPUT****
 Total Charge           Charge          ....    0
 Multiplicity           Mult            ....    1
 Number of Electrons    NEL             ....  154
FINAL SINGLE POINT ENERGY      -936.785844727607
FINAL SINGLE POINT ENERGY      -936.789108956957
FINAL SINGLE POINT ENERGY      -936.789187730294
FINAL SINGLE POINT ENERGY      -936.789213271179
FINAL SINGLE POINT ENERGY      -936.789215651332
FINAL SINGLE POINT ENERGY      -936.789215981770
                    ***********************HURRAY********************

CARTESIAN COORDINATES (ANGSTROEM)
---------------------------------
  C     -7.209688    2.884863   -0.194188
  C     -5.951233    3.524422   -0.197137
  C     -4.766312    2.811397   -0.136160
  C     -4.774151    1.403633   -0.066685
  C     -3.562446    0.644456    0.014481
  C     -3.579699   -0.719518    0.083143
  C     -4.810326   -1.461933    0.068005
  C     -4.841769   -2.889551    0.129787
  C     -6.099238   -3.529762    0.123162
  C     -7.288731   -2.817158    0.075384
  C     -7.288803   -1.411506    0.010434
  C     -8.499770   -0.651548   -0.065766
  C     -8.486779    0.712185   -0.136684
  C     -7.255589    1.456265   -0.127579
  C     -6.025967    0.713062   -0.063775
  C     -6.038603   -0.720755    0.003404
  C     -8.437080    3.676298   -0.241920
  C     -3.605322   -3.675707    0.183035
  C     -8.544839    4.985089   -0.584046
  C     -3.493312   -4.908229    0.714955
  C     -9.790519    5.678782   -0.570990
  O     -2.324508   -5.591669    0.683255
  N    -10.798048    6.260702   -0.569625
  H     -5.907000    4.615123   -0.219876
  H     -3.809360    3.339933   -0.127770
  H     -2.610879    1.183002    0.026257
  H     -2.633733   -1.255994    0.159881
  H     -6.139014   -4.621324    0.120734
  H     -8.243416   -3.350566    0.063867
  H     -9.452155   -1.189211   -0.071692
  H     -9.438155    1.238814   -0.209554
  H     -9.365895    3.170638    0.030238
  H     -2.689181   -3.248287   -0.232228
  H     -7.678636    5.573042   -0.901657
  H     -4.336093   -5.410356    1.205512
  H     -2.412974   -6.416726    1.175065

 Multiplicity           Mult            ....    1
 Number of Electrons    NEL             ....  154
 Basis Dimension        Dim             ....  387

ORBITAL ENERGIES
----------------

  NO   OCC          E(Eh)            E(eV)
   0   2.0000     -19.180976      -521.9409
   1   2.0000     -14.314685      -389.5224
   2   2.0000     -10.259355      -279.1712
   3   2.0000     -10.224480      -278.2222
   4   2.0000     -10.222067      -278.1566
   5   2.0000     -10.216484      -278.0047
   6   2.0000     -10.213642      -277.9273
   7   2.0000     -10.212356      -277.8923
   8   2.0000     -10.211567      -277.8709
   9   2.0000     -10.207988      -277.7735
  10   2.0000     -10.207686      -277.7653
  11   2.0000     -10.206235      -277.7258
  12   2.0000     -10.205928      -277.7174
  13   2.0000     -10.202838      -277.6333
  14   2.0000     -10.202332      -277.6196
  15   2.0000     -10.201106      -277.5862
  16   2.0000     -10.200257      -277.5631
  17   2.0000     -10.200037      -277.5571
  18   2.0000     -10.199613      -277.5456
  19   2.0000     -10.198950      -277.5275
  20   2.0000     -10.198896      -277.5261
  21   2.0000     -10.197852      -277.4977
  22   2.0000     -10.189082      -277.2590
  23   2.0000      -1.064826       -28.9754
  24   2.0000      -0.894039       -24.3280
  25   2.0000      -0.884282       -24.0625
  26   2.0000      -0.859133       -23.3782
  27   2.0000      -0.833558       -22.6823
  28   2.0000      -0.820641       -22.3308
  29   2.0000      -0.791679       -21.5427
  30   2.0000      -0.781652       -21.2698
  31   2.0000      -0.753791       -20.5117
  32   2.0000      -0.744652       -20.2630
  33   2.0000      -0.730332       -19.8733
  34   2.0000      -0.710394       -19.3308
  35   2.0000      -0.657927       -17.9031
  36   2.0000      -0.639950       -17.4139
  37   2.0000      -0.635422       -17.2907
  38   2.0000      -0.620107       -16.8740
  39   2.0000      -0.600444       -16.3389
  40   2.0000      -0.581920       -15.8349
  41   2.0000      -0.566728       -15.4214
  42   2.0000      -0.547446       -14.8968
  43   2.0000      -0.533729       -14.5235
  44   2.0000      -0.526598       -14.3295
  45   2.0000      -0.512762       -13.9530
  46   2.0000      -0.505188       -13.7469
  47   2.0000      -0.496821       -13.5192
  48   2.0000      -0.474606       -12.9147
  49   2.0000      -0.458719       -12.4824
  50   2.0000      -0.451132       -12.2759
  51   2.0000      -0.449975       -12.2444
  52   2.0000      -0.434066       -11.8115
  53   2.0000      -0.429866       -11.6972
  54   2.0000      -0.422714       -11.5026
  55   2.0000      -0.418946       -11.4001
  56   2.0000      -0.409774       -11.1505
  57   2.0000      -0.405794       -11.0422
  58   2.0000      -0.402230       -10.9452
  59   2.0000      -0.398431       -10.8419
  60   2.0000      -0.384603       -10.4656
  61   2.0000      -0.383145       -10.4259
  62   2.0000      -0.375400       -10.2151
  63   2.0000      -0.365882        -9.9562
  64   2.0000      -0.360771        -9.8171
  65   2.0000      -0.353217        -9.6115
  66   2.0000      -0.347982        -9.4691
  67   2.0000      -0.341811        -9.3012
  68   2.0000      -0.329070        -8.9544
  69   2.0000      -0.323983        -8.8160
  70   2.0000      -0.322773        -8.7831
  71   2.0000      -0.296805        -8.0765
  72   2.0000      -0.279035        -7.5929
  73   2.0000      -0.266577        -7.2539
  74   2.0000      -0.244092        -6.6421
  75   2.0000      -0.237463        -6.4617
  76   2.0000      -0.196818        -5.3557
  77   0.0000      -0.089075        -2.4239
  78   0.0000      -0.049827        -1.3559
  79   0.0000      -0.039031        -1.0621
  80   0.0000      -0.017829        -0.4851
  81   0.0000       0.004944         0.1345

MULLIKEN ATOMIC CHARGES
-----------------------
   0 C :    0.054304
   1 C :   -0.022402
   2 C :   -0.031811
   3 C :    0.072167
   4 C :   -0.009865
   5 C :   -0.031414
   6 C :    0.057699
   7 C :    0.076036
   8 C :   -0.040083
   9 C :   -0.028082
  10 C :    0.064592
  11 C :   -0.005237
  12 C :   -0.043767
  13 C :    0.082349
  14 C :    0.055122
  15 C :    0.064700
  16 C :    0.016603
  17 C :   -0.038026
  18 C :   -0.119749
  19 C :    0.080589
  20 C :   -0.098547
  21 O :   -0.188612
  22 N :    0.031883
  23 H :   -0.023905
  24 H :   -0.029468
  25 H :   -0.030816
  26 H :   -0.027686
  27 H :   -0.033785
  28 H :   -0.030750
  29 H :   -0.029370
  30 H :   -0.029160
  31 H :    0.012040
  32 H :    0.001665
  33 H :    0.036997
  34 H :    0.000584
  35 H :    0.185206
Sum of atomic charges:   -0.0000000

LOEWDIN ATOMIC CHARGES
----------------------
   0 C :   -0.037234
   1 C :   -0.007448
   2 C :   -0.020771
   3 C :   -0.007677
   4 C :   -0.018217
   5 C :   -0.008315
   6 C :   -0.017441
   7 C :   -0.004839
   8 C :   -0.027161
   9 C :   -0.012122
  10 C :   -0.024597
  11 C :   -0.005904
  12 C :   -0.026271
  13 C :    0.000738
  14 C :    0.001755
  15 C :    0.004199
  16 C :    0.033328
  17 C :   -0.089083
  18 C :   -0.075584
  19 C :    0.060713
  20 C :   -0.037188
  21 O :   -0.047071
  22 N :   -0.078331
  23 H :    0.028223
  24 H :    0.028747
  25 H :    0.028730
  26 H :    0.028848
  27 H :    0.022987
  28 H :    0.028019
  29 H :    0.029597
  30 H :    0.027388
  31 H :    0.036781
  32 H :    0.032164
  33 H :    0.044188
  34 H :    0.012253
  35 H :    0.096594

  Mayer bond orders larger than 0.100000
B(  0-C ,  1-C ) :   1.3105 B(  0-C , 13-C ) :   1.2566 B(  0-C , 16-C ) :   1.1119
B(  1-C ,  2-C ) :   1.3963 B(  1-C , 23-H ) :   0.9769 B(  2-C ,  3-C ) :   1.2694
B(  2-C , 24-H ) :   0.9882 B(  3-C ,  4-C ) :   1.1621 B(  3-C , 14-C ) :   1.2405
B(  4-C ,  5-C ) :   1.5324 B(  4-C , 25-H ) :   0.9850 B(  5-C ,  6-C ) :   1.1705
B(  5-C , 26-H ) :   0.9768 B(  6-C ,  7-C ) :   1.2742 B(  6-C , 15-C ) :   1.2314
B(  7-C ,  8-C ) :   1.3250 B(  7-C , 17-C ) :   1.0824 B(  8-C ,  9-C ) :   1.3791
B(  8-C , 27-H ) :   0.9766 B(  9-C , 10-C ) :   1.2811 B(  9-C , 28-H ) :   0.9870
B( 10-C , 11-C ) :   1.1578 B( 10-C , 15-C ) :   1.2413 B( 11-C , 12-C ) :   1.5415
B( 11-C , 29-H ) :   0.9833 B( 12-C , 13-C ) :   1.1678 B( 12-C , 30-H ) :   0.9768
B( 13-C , 14-C ) :   1.2336 B( 14-C , 15-C ) :   1.2291 B( 16-C , 18-C ) :   1.7459
B( 16-C , 31-H ) :   0.9565 B( 17-C , 19-C ) :   1.7403 B( 17-C , 32-H ) :   0.9474
B( 18-C , 20-C ) :   1.1086 B( 18-C , 33-H ) :   0.9444 B( 19-C , 21-O ) :   1.1971
B( 19-C , 34-H ) :   0.9570 B( 20-C , 22-N ) :   2.9618 B( 21-O , 35-H ) :   0.9650

FINAL SINGLE POINT ENERGY      -936.789216067728

DIPOLE MOMENT
-------------
                                X             Y             Z
Electronic contribution:     -3.71495       5.79343      -0.70838
Nuclear contribution   :      5.48037      -8.52170       1.28461
                        -----------------------------------------
Total Dipole Moment    :      1.76542      -2.72827       0.57623
                        -----------------------------------------
Magnitude (a.u.)       :      3.30033
Magnitude (Debye)      :      8.38878

VIBRATIONAL FREQUENCIES
-----------------------

Scaling factor for frequencies =  1.000000000  (already applied!)

   0:         0.00 cm**-1
   1:         0.00 cm**-1
   2:         0.00 cm**-1
   3:         0.00 cm**-1
   4:         0.00 cm**-1
   5:         0.00 cm**-1
   6:        25.01 cm**-1
   7:        54.63 cm**-1
   8:        66.81 cm**-1
   9:        67.58 cm**-1
  10:        97.09 cm**-1
  11:       101.23 cm**-1
  12:       119.86 cm**-1
  13:       148.32 cm**-1
  14:       198.19 cm**-1
  15:       221.19 cm**-1
  16:       222.68 cm**-1
  17:       257.09 cm**-1
  18:       269.41 cm**-1
  19:       291.55 cm**-1
  20:       312.34 cm**-1
  21:       335.50 cm**-1
  22:       355.73 cm**-1
  23:       378.59 cm**-1
  24:       420.16 cm**-1
  25:       442.24 cm**-1
  26:       453.19 cm**-1
  27:       494.21 cm**-1
  28:       510.44 cm**-1
  29:       515.53 cm**-1
  30:       528.23 cm**-1
  31:       532.49 cm**-1
  32:       563.12 cm**-1
  33:       566.43 cm**-1
  34:       580.19 cm**-1
  35:       621.12 cm**-1
  36:       632.12 cm**-1
  37:       676.86 cm**-1
  38:       702.43 cm**-1
  39:       719.21 cm**-1
  40:       756.47 cm**-1
  41:       764.61 cm**-1
  42:       783.25 cm**-1
  43:       815.41 cm**-1
  44:       818.05 cm**-1
  45:       832.01 cm**-1
  46:       852.39 cm**-1
  47:       859.88 cm**-1
  48:       877.46 cm**-1
  49:       885.08 cm**-1
  50:       887.87 cm**-1
  51:       940.67 cm**-1
  52:       948.27 cm**-1
  53:       983.14 cm**-1
  54:       988.34 cm**-1
  55:       993.22 cm**-1
  56:       998.49 cm**-1
  57:      1002.25 cm**-1
  58:      1012.38 cm**-1
  59:      1016.34 cm**-1
  60:      1039.59 cm**-1
  61:      1117.92 cm**-1
  62:      1130.48 cm**-1
  63:      1164.91 cm**-1
  64:      1181.32 cm**-1
  65:      1188.00 cm**-1
  66:      1197.91 cm**-1
  67:      1207.53 cm**-1
  68:      1227.53 cm**-1
  69:      1249.74 cm**-1
  70:      1265.37 cm**-1
  71:      1269.46 cm**-1
  72:      1277.17 cm**-1
  73:      1282.39 cm**-1
  74:      1327.11 cm**-1
  75:      1333.87 cm**-1
  76:      1342.42 cm**-1
  77:      1369.10 cm**-1
  78:      1377.72 cm**-1
  79:      1406.96 cm**-1
  80:      1411.05 cm**-1
  81:      1425.10 cm**-1
  82:      1440.76 cm**-1
  83:      1466.73 cm**-1
  84:      1503.35 cm**-1
  85:      1536.02 cm**-1
  86:      1546.16 cm**-1
  87:      1574.65 cm**-1
  88:      1622.02 cm**-1
  89:      1638.40 cm**-1
  90:      1656.95 cm**-1
  91:      1663.73 cm**-1
  92:      1675.62 cm**-1
  93:      1735.01 cm**-1
  94:      2338.00 cm**-1
  95:      3147.46 cm**-1
  96:      3171.04 cm**-1
  97:      3173.08 cm**-1
  98:      3174.36 cm**-1
  99:      3174.71 cm**-1
 100:      3177.95 cm**-1
 101:      3182.67 cm**-1
 102:      3191.54 cm**-1
 103:      3192.40 cm**-1
 104:      3197.70 cm**-1
 105:      3215.05 cm**-1
 106:      3217.37 cm**-1
 107:      3849.26 cm**-1

IR SPECTRUM
-----------

 Mode   freq       eps      Int      T**2         TX        TY        TZ
       cm**-1   L/(mol*cm) km/mol    a.u.
----------------------------------------------------------------------------
  6:     25.01   0.000024    0.12  0.000297  (-0.000691 -0.012998  0.011307)
  7:     54.63   0.000636    3.21  0.003634  (-0.023434  0.039181  0.039362)
  8:     66.81   0.001275    6.44  0.005955  ( 0.032994  0.022730  0.065952)
  9:     67.58   0.000276    1.39  0.001273  (-0.005938 -0.026189  0.023491)
 10:     97.09   0.001665    8.42  0.005353  ( 0.023240  0.061737  0.031644)
 11:    101.23   0.000025    0.12  0.000076  (-0.003407  0.002559 -0.007596)
 12:    119.86   0.001124    5.68  0.002926  ( 0.011373 -0.033404 -0.040994)
 13:    148.32   0.001088    5.50  0.002288  ( 0.003235 -0.027865 -0.038750)
 14:    198.19   0.001120    5.66  0.001763  (-0.016625 -0.037875 -0.007223)
 15:    221.19   0.000611    3.09  0.000862  (-0.000182 -0.008279 -0.028175)
 16:    222.68   0.001056    5.33  0.001479  (-0.000905  0.004708  0.038163)
 17:    257.09   0.000153    0.77  0.000185  ( 0.005073  0.009211 -0.008634)
 18:    269.41   0.000248    1.26  0.000288  (-0.002367  0.015879  0.005470)
 19:    291.55   0.002434   12.30  0.002605  (-0.014280 -0.028707 -0.039714)
 20:    312.34   0.001581    7.99  0.001580  ( 0.012391 -0.030990 -0.021588)
 21:    335.50   0.012278   62.05  0.011421  ( 0.036583  0.045687  0.089415)
 22:    355.73   0.001206    6.10  0.001058  (-0.006641  0.023475  0.021517)
 23:    378.59   0.003756   18.98  0.003096  (-0.009842 -0.025370 -0.048531)
 24:    420.16   0.001514    7.65  0.001125  (-0.018473  0.027971 -0.000947)
 25:    442.24   0.001203    6.08  0.000849  (-0.019410  0.021289 -0.004324)
 26:    453.19   0.000237    1.20  0.000163  ( 0.010737 -0.006197  0.003056)
 27:    494.21   0.000506    2.56  0.000320  ( 0.001232 -0.000249  0.017836)
 28:    510.44   0.000685    3.46  0.000419  ( 0.009875 -0.016856  0.006116)
 29:    515.53   0.000248    1.25  0.000150  ( 0.007976  0.007759  0.005101)
 30:    528.23   0.000097    0.49  0.000057  ( 0.003349 -0.005947  0.003241)
 31:    532.49   0.001679    8.48  0.000984  ( 0.007904 -0.029912  0.005169)
 32:    563.12   0.000261    1.32  0.000144  ( 0.006713 -0.009930 -0.000887)
 33:    566.43   0.000137    0.69  0.000076  (-0.004215  0.007537 -0.000994)
 34:    580.19   0.000424    2.15  0.000228  ( 0.010634 -0.005204 -0.009389)
 35:    621.12   0.003185   16.10  0.001600  (-0.018167  0.035640  0.000069)
 36:    632.12   0.000780    3.94  0.000385  (-0.010680  0.016453 -0.000680)
 37:    676.86   0.000018    0.09  0.000008  (-0.001174  0.001778  0.001889)
 38:    702.43   0.000120    0.61  0.000054  (-0.004699  0.005509  0.001043)
 39:    719.21   0.001123    5.67  0.000487  (-0.002014  0.004572 -0.021497)
 40:    756.47   0.002744   13.87  0.001132  (-0.003747  0.005970  0.032896)
 41:    764.61   0.000955    4.83  0.000390  (-0.011453  0.013681 -0.008457)
 42:    783.25   0.000190    0.96  0.000076  ( 0.006167 -0.005678  0.002338)
 43:    815.41   0.009263   46.81  0.003545  ( 0.028403 -0.052267  0.002525)
 44:    818.05   0.000212    1.07  0.000081  (-0.001693  0.005415  0.006973)
 45:    832.01   0.002157   10.90  0.000809  ( 0.004821 -0.009700  0.026297)
 46:    852.39   0.000648    3.28  0.000237  (-0.009533 -0.000946 -0.012065)
 47:    859.88   0.001309    6.61  0.000475  (-0.013849  0.016740  0.001711)
 48:    877.46   0.005943   30.03  0.002114  ( 0.010022 -0.014938  0.042308)
 49:    885.08   0.000647    3.27  0.000228  ( 0.008421 -0.003069  0.012158)
 50:    887.87   0.006785   34.29  0.002385  ( 0.009260 -0.013382 -0.046042)
 51:    940.67   0.000490    2.48  0.000163  ( 0.004517 -0.002631  0.011633)
 52:    948.27   0.006870   34.72  0.002261  (-0.019796  0.002578 -0.043156)
 53:    983.14   0.005213   26.35  0.001655  (-0.008075  0.028898  0.027468)
 54:    988.34   0.000760    3.84  0.000240  (-0.002434  0.001458 -0.015226)
 55:    993.22   0.000144    0.73  0.000045  ( 0.005447 -0.000887  0.003838)
 56:    998.49   0.000659    3.33  0.000206  (-0.008678  0.011429  0.000096)
 57:   1002.25   0.001496    7.56  0.000466  ( 0.006438  0.000284  0.020599)
 58:   1012.38   0.000158    0.80  0.000049  ( 0.001537 -0.006762  0.000841)
 59:   1016.34   0.000004    0.02  0.000001  ( 0.000263  0.000911  0.000422)
 60:   1039.59   0.000060    0.30  0.000018  (-0.003604 -0.002230  0.000089)
 61:   1117.92   0.001796    9.07  0.000501  ( 0.007626 -0.020959  0.001947)
 62:   1130.48   0.000144    0.73  0.000040  ( 0.005270 -0.003444 -0.000328)
 63:   1164.91   0.001508    7.62  0.000404  ( 0.001377  0.018674 -0.007312)
 64:   1181.32   0.000025    0.12  0.000006  (-0.001459  0.001154  0.001742)
 65:   1188.00   0.001836    9.28  0.000482  (-0.017476  0.013297 -0.000094)
 66:   1197.91   0.006453   32.61  0.001681  (-0.037060  0.017271 -0.003068)
 67:   1207.53   0.012868   65.03  0.003325  ( 0.049257 -0.029547  0.005108)
 68:   1227.53   0.075550  381.80  0.019206  ( 0.079929 -0.112374  0.013775)
 69:   1249.74   0.034845  176.09  0.008701  (-0.049639  0.078340 -0.009985)
 70:   1265.37   0.008929   45.12  0.002202  ( 0.023276 -0.040596  0.003513)
 71:   1269.46   0.000862    4.35  0.000212  (-0.003134 -0.014187  0.000858)
 72:   1277.17   0.000540    2.73  0.000132  (-0.008572  0.007008 -0.003049)
 73:   1282.39   0.018672   94.36  0.004544  ( 0.049800 -0.045092  0.005507)
 74:   1327.11   0.001638    8.28  0.000385  (-0.009863  0.016879 -0.001714)
 75:   1333.87   0.009368   47.34  0.002192  ( 0.027313 -0.037916  0.002855)
 76:   1342.42   0.001453    7.34  0.000338  (-0.017813 -0.001227  0.004357)
 77:   1369.10   0.000211    1.07  0.000048  ( 0.006281 -0.002926 -0.000378)
 78:   1377.72   0.013213   66.77  0.002993  ( 0.043292 -0.033421  0.001269)
 79:   1406.96   0.000843    4.26  0.000187  ( 0.003972 -0.013083  0.000275)
 80:   1411.05   0.001585    8.01  0.000351  (-0.013078  0.013354  0.001083)
 81:   1425.10   0.001890    9.55  0.000414  ( 0.001594 -0.020132  0.002453)
 82:   1440.76   0.000752    3.80  0.000163  ( 0.007558 -0.010211  0.001179)
 83:   1466.73   0.001081    5.46  0.000230  ( 0.012411 -0.008707 -0.000405)
 84:   1503.35   0.000508    2.57  0.000105  (-0.007128 -0.007380  0.000333)
 85:   1536.02   0.000717    3.62  0.000146  (-0.011919  0.001816 -0.000500)
 86:   1546.16   0.003771   19.06  0.000761  (-0.011680  0.024963 -0.001282)
 87:   1574.65   0.003451   17.44  0.000684  (-0.017537  0.019148 -0.003131)
 88:   1622.02   0.001161    5.87  0.000223  (-0.003236  0.014510 -0.001554)
 89:   1638.40   0.045254  228.69  0.008619  ( 0.051678 -0.076501  0.009825)
 90:   1656.95   0.008173   41.31  0.001539  (-0.002435  0.039034 -0.003129)
 91:   1663.73   0.022954  116.00  0.004305  (-0.036538  0.054031 -0.007145)
 92:   1675.62   0.000388    1.96  0.000072  (-0.002409 -0.008147 -0.000190)
 93:   1735.01   0.075994  384.04  0.013668  (-0.058913  0.099203 -0.018881)
 94:   2338.00   0.026821  135.54  0.003580  ( 0.037436 -0.046479  0.004261)
 95:   3147.46   0.002180   11.02  0.000216  ( 0.013621  0.000205 -0.005527)
 96:   3171.04   0.000243    1.23  0.000024  ( 0.003665 -0.003198  0.000516)
 97:   3173.08   0.000565    2.85  0.000056  (-0.003371  0.006634 -0.000424)
 98:   3174.36   0.001771    8.95  0.000174  (-0.013182  0.000018 -0.000592)
 99:   3174.71   0.003099   15.66  0.000305  ( 0.016539 -0.005518  0.000784)
100:   3177.95   0.001424    7.19  0.000140  ( 0.011776  0.001029  0.000256)
101:   3182.67   0.001632    8.25  0.000160  ( 0.006678 -0.010740  0.000250)
102:   3191.54   0.003777   19.09  0.000369  ( 0.006053  0.018229 -0.000584)
103:   3192.40   0.001313    6.63  0.000128  ( 0.003609 -0.010737 -0.000080)
104:   3197.70   0.002001   10.11  0.000195  ( 0.006774  0.012216 -0.000437)
105:   3215.05   0.002215   11.20  0.000215  ( 0.014382 -0.002824  0.000470)
106:   3217.37   0.002241   11.33  0.000217  (-0.014108  0.004275 -0.000307)
107:   3849.26   0.057064  288.38  0.004626  ( 0.021508 -0.061048  0.020899)

--------------------------
THERMOCHEMISTRY AT 298.15K
--------------------------

Temperature         ... 298.15 K
Pressure            ... 1.00 atm
Total Mass          ... 295.34 AMU

Throughout the following assumptions are being made:
  (1) The electronic state is orbitally nondegenerate
  (2) There are no thermally accessible electronically excited states
  (3) Hindered rotations indicated by low frequency modes are not
      treated as such but are treated as vibrations and this may
      cause some error
  (4) All equations used are the standard statistical mechanics
      equations for an ideal gas
  (5) All vibrations are strictly harmonic

freq.      25.01  E(vib)   ...       0.56
freq.      54.63  E(vib)   ...       0.52
freq.      66.81  E(vib)   ...       0.50
freq.      67.58  E(vib)   ...       0.50
freq.      97.09  E(vib)   ...       0.46
freq.     101.23  E(vib)   ...       0.46
freq.     119.86  E(vib)   ...       0.44
freq.     148.32  E(vib)   ...       0.41
freq.     198.19  E(vib)   ...       0.35
freq.     221.19  E(vib)   ...       0.33
freq.     222.68  E(vib)   ...       0.33
freq.     257.09  E(vib)   ...       0.30
freq.     269.41  E(vib)   ...       0.29
freq.     291.55  E(vib)   ...       0.27
freq.     312.34  E(vib)   ...       0.25
freq.     335.50  E(vib)   ...       0.24
freq.     355.73  E(vib)   ...       0.22
freq.     378.59  E(vib)   ...       0.21
freq.     420.16  E(vib)   ...       0.18
freq.     442.24  E(vib)   ...       0.17
freq.     453.19  E(vib)   ...       0.16
freq.     494.21  E(vib)   ...       0.14
freq.     510.44  E(vib)   ...       0.14
freq.     515.53  E(vib)   ...       0.13
freq.     528.23  E(vib)   ...       0.13
freq.     532.49  E(vib)   ...       0.13
freq.     563.12  E(vib)   ...       0.11
freq.     566.43  E(vib)   ...       0.11
freq.     580.19  E(vib)   ...       0.11
freq.     621.12  E(vib)   ...       0.09
freq.     632.12  E(vib)   ...       0.09
freq.     676.86  E(vib)   ...       0.08
freq.     702.43  E(vib)   ...       0.07
freq.     719.21  E(vib)   ...       0.07
freq.     756.47  E(vib)   ...       0.06
freq.     764.61  E(vib)   ...       0.06
freq.     783.25  E(vib)   ...       0.05
freq.     815.41  E(vib)   ...       0.05
freq.     818.05  E(vib)   ...       0.05
freq.     832.01  E(vib)   ...       0.04
freq.     852.39  E(vib)   ...       0.04
freq.     859.88  E(vib)   ...       0.04
freq.     877.46  E(vib)   ...       0.04
freq.     885.08  E(vib)   ...       0.04
freq.     887.87  E(vib)   ...       0.04
freq.     940.67  E(vib)   ...       0.03
freq.     948.27  E(vib)   ...       0.03
freq.     983.14  E(vib)   ...       0.02
freq.     988.34  E(vib)   ...       0.02
freq.     993.22  E(vib)   ...       0.02
freq.     998.49  E(vib)   ...       0.02
freq.    1002.25  E(vib)   ...       0.02
freq.    1012.38  E(vib)   ...       0.02
freq.    1016.34  E(vib)   ...       0.02
freq.    1039.59  E(vib)   ...       0.02
freq.    1117.92  E(vib)   ...       0.01
freq.    1130.48  E(vib)   ...       0.01
freq.    1164.91  E(vib)   ...       0.01
freq.    1181.32  E(vib)   ...       0.01
freq.    1188.00  E(vib)   ...       0.01
freq.    1197.91  E(vib)   ...       0.01
freq.    1207.53  E(vib)   ...       0.01
freq.    1227.53  E(vib)   ...       0.01
freq.    1249.74  E(vib)   ...       0.01
freq.    1265.37  E(vib)   ...       0.01
freq.    1269.46  E(vib)   ...       0.01
freq.    1277.17  E(vib)   ...       0.01
freq.    1282.39  E(vib)   ...       0.01
freq.    1327.11  E(vib)   ...       0.01
freq.    1333.87  E(vib)   ...       0.01
freq.    1342.42  E(vib)   ...       0.01
freq.    1369.10  E(vib)   ...       0.01
freq.    1377.72  E(vib)   ...       0.01
freq.    1406.96  E(vib)   ...       0.00
freq.    1411.05  E(vib)   ...       0.00
freq.    1425.10  E(vib)   ...       0.00
freq.    1440.76  E(vib)   ...       0.00
freq.    1466.73  E(vib)   ...       0.00
freq.    1503.35  E(vib)   ...       0.00
freq.    1536.02  E(vib)   ...       0.00
freq.    1546.16  E(vib)   ...       0.00
freq.    1574.65  E(vib)   ...       0.00
freq.    1622.02  E(vib)   ...       0.00
freq.    1638.40  E(vib)   ...       0.00
freq.    1656.95  E(vib)   ...       0.00
freq.    1663.73  E(vib)   ...       0.00
freq.    1675.62  E(vib)   ...       0.00
freq.    1735.01  E(vib)   ...       0.00
freq.    2338.00  E(vib)   ...       0.00
freq.    3147.46  E(vib)   ...       0.00
freq.    3171.04  E(vib)   ...       0.00
freq.    3173.08  E(vib)   ...       0.00
freq.    3174.36  E(vib)   ...       0.00
freq.    3174.71  E(vib)   ...       0.00
freq.    3177.95  E(vib)   ...       0.00
freq.    3182.67  E(vib)   ...       0.00
freq.    3191.54  E(vib)   ...       0.00
freq.    3192.40  E(vib)   ...       0.00
freq.    3197.70  E(vib)   ...       0.00
freq.    3215.05  E(vib)   ...       0.00
freq.    3217.37  E(vib)   ...       0.00
freq.    3849.26  E(vib)   ...       0.00

------------
INNER ENERGY
------------

The inner energy is: U= E(el) + E(ZPE) + E(vib) + E(rot) + E(trans)
    E(el)   - is the total energy from the electronic structure calculation
              = E(kin-el) + E(nuc-el) + E(el-el) + E(nuc-nuc)
    E(ZPE)  - the the zero temperature vibrational energy from the frequency calculation
    E(vib)  - the the finite temperature correction to E(ZPE) due to population
              of excited vibrational states
    E(rot)  - is the rotational thermal energy
    E(trans)- is the translational thermal energy

Summary of contributions to the inner energy U:
Electronic energy                ...   -936.78921607 Eh
Zero point energy                ...      0.27736907 Eh     174.05 kcal/mol
Thermal vibrational correction   ...      0.01511609 Eh       9.49 kcal/mol
Thermal rotational correction    ...      0.00141627 Eh       0.89 kcal/mol
Thermal translational correction ...      0.00141627 Eh       0.89 kcal/mol
-----------------------------------------------------------------------
Total thermal energy                   -936.49389837 Eh

Summary of corrections to the electronic energy:
(perhaps to be used in another calculation)
Total thermal correction                  0.01794863 Eh      11.26 kcal/mol
Non-thermal (ZPE) correction              0.27736907 Eh     174.05 kcal/mol
-----------------------------------------------------------------------
Total correction                          0.29531770 Eh     185.31 kcal/mol

--------
ENTHALPY
--------

The enthalpy is H = U + kB*T
                kB is Boltzmann's constant
Total free energy                 ...   -936.49389837 Eh
Thermal Enthalpy correction       ...      0.00094421 Eh       0.59 kcal/mol
-----------------------------------------------------------------------
Total Enthalpy                    ...   -936.49295416 Eh

Rotational constants in cm-1:     0.026135     0.003943     0.003432

                             ****ORCA TERMINATED NORMALLY****
TOTAL RUN TIME: 0 days 0 hours 32 minutes 20 seconds 739 msec
