                         Program Version 5.0.4 -  RELEASE  -
|  1> ! B3LYP def2-SVP Opt PAL8 FREQ
|  2> #defgrid3 slowconv VeryTightSCF
|  3> *xyz 0 1
|  4>   C   -7.181673    2.676380   -0.233569
|  5>   C   -6.025116    3.346171   -0.197181
|  6>   C   -4.867706    2.679037   -0.097971
|  7>   C   -4.868227    1.342037   -0.097971
|  8>   C   -3.710654    0.673112   -0.086392
|  9>   C   -3.713097   -0.663450    0.022061
| 10>   C   -4.872863   -1.325629    0.085555
| 11>   C   -4.876956   -2.652183    0.252304
| 12>   C   -6.036708   -3.314386    0.315802
| 13>   C   -7.192936   -2.653800    0.170979
| 14>   C   -7.187210   -1.327112    0.005338
| 15>   C   -8.340689   -0.666270   -0.137287
| 16>   C   -8.339160    0.670762   -0.214577
| 17>   C   -7.182588    1.340528   -0.178187
| 18>   C   -6.026362    0.673987   -0.097971
| 19>   C   -6.028673   -0.659858   -0.006207
| 20>   C   -8.337316    3.342441   -0.325340
| 21>   C   -3.721298   -3.316534    0.355556
| 22>   C   -8.336401    4.678293   -0.380722
| 23>   C   -3.725392   -4.643089    0.522305
| 24>   C   -9.471299    5.332398   -0.470845
| 25>   O   -2.554175   -5.316384    0.626947
| 26>   N  -10.472222    5.909286   -0.550329
| 27>   H   -6.023974    4.444963   -0.248706
| 28>   H   -3.919078    3.229944   -0.016693
| 29>   H   -2.758363    1.217960   -0.165658
| 30>   H   -2.761802   -1.214533    0.058753
| 31>   H   -6.041367   -4.400994    0.486864
| 32>   H   -8.146261   -3.202317    0.188313
| 33>   H   -9.289647   -1.219972   -0.191074
| 34>   H   -9.289011    1.217629   -0.307954
| 35>   H   -9.288859    2.791379   -0.355277
| 36>   H   -2.767127   -2.771715    0.303314
| 37>   H   -7.384858    5.229356   -0.350784
| 38>   H   -4.679563   -5.187908    0.574547
| 39>   H   -2.759147   -6.259528    0.742055
| 40> **                         ****END OF INPUT****
 Total Charge           Charge          ....    0
 Multiplicity           Mult            ....    1
 Number of Electrons    NEL             ....  154
FINAL SINGLE POINT ENERGY      -936.591324002140
FINAL SINGLE POINT ENERGY      -936.711998453572
FINAL SINGLE POINT ENERGY      -936.772952978126
FINAL SINGLE POINT ENERGY      -936.787271800995
FINAL SINGLE POINT ENERGY      -936.788411537699
FINAL SINGLE POINT ENERGY      -936.788642472091
FINAL SINGLE POINT ENERGY      -936.788721600719
FINAL SINGLE POINT ENERGY      -936.788737653827
FINAL SINGLE POINT ENERGY      -936.788741359075
FINAL SINGLE POINT ENERGY      -936.788742067768
                    ***********************HURRAY********************

CARTESIAN COORDINATES (ANGSTROEM)
---------------------------------
  C     -7.213700    2.889523   -0.259660
  C     -5.954912    3.529019   -0.260046
  C     -4.771203    2.820892   -0.156225
  C     -4.778643    1.415570   -0.046693
  C     -3.566670    0.661531    0.056579
  C     -3.580291   -0.700100    0.159909
  C     -4.807362   -1.448826    0.171815
  C     -4.837974   -2.876678    0.276660
  C     -6.099441   -3.512820    0.281253
  C     -7.285491   -2.804115    0.186496
  C     -7.285935   -1.400269    0.079581
  C     -8.497139   -0.646161   -0.021058
  C     -8.487567    0.715450   -0.127985
  C     -7.258738    1.462080   -0.143821
  C     -6.028267    0.722389   -0.039105
  C     -6.036961   -0.709609    0.071500
  C     -8.439267    3.674003   -0.379905
  C     -3.601919   -3.653503    0.376177
  C     -8.542041    5.021736   -0.508908
  C     -3.495663   -4.995271    0.450242
  C     -9.800845    5.680457   -0.624709
  O     -2.284987   -5.596082    0.540461
  N    -10.819117    6.235375   -0.720805
  H     -5.905788    4.616127   -0.345192
  H     -3.814468    3.349775   -0.159947
  H     -2.615783    1.201261    0.050339
  H     -2.628169   -1.224053    0.235429
  H     -6.153814   -4.600165    0.364083
  H     -8.240344   -3.337193    0.194878
  H     -9.448469   -1.185617   -0.011381
  H     -9.442374    1.234870   -0.201706
  H     -9.382290    3.125661   -0.369241
  H     -2.649798   -3.121396    0.392260
  H     -7.665135    5.674734   -0.533753
  H     -4.362930   -5.665060    0.440485
  H     -2.394285   -6.553534    0.581991

 Multiplicity           Mult            ....    1
 Number of Electrons    NEL             ....  154
 Basis Dimension        Dim             ....  387

ORBITAL ENERGIES
----------------

  NO   OCC          E(Eh)            E(eV)
   0   2.0000     -19.182761      -521.9895
   1   2.0000     -14.313476      -389.4895
   2   2.0000     -10.261051      -279.2174
   3   2.0000     -10.223219      -278.1879
   4   2.0000     -10.221031      -278.1284
   5   2.0000     -10.215394      -277.9750
   6   2.0000     -10.214141      -277.9409
   7   2.0000     -10.213912      -277.9347
   8   2.0000     -10.211281      -277.8631
   9   2.0000     -10.207907      -277.7713
  10   2.0000     -10.207408      -277.7577
  11   2.0000     -10.207104      -277.7494
  12   2.0000     -10.206178      -277.7242
  13   2.0000     -10.202477      -277.6235
  14   2.0000     -10.201686      -277.6020
  15   2.0000     -10.200671      -277.5744
  16   2.0000     -10.200520      -277.5703
  17   2.0000     -10.200225      -277.5622
  18   2.0000     -10.199161      -277.5333
  19   2.0000     -10.198512      -277.5156
  20   2.0000     -10.198457      -277.5141
  21   2.0000     -10.198364      -277.5116
  22   2.0000     -10.190031      -277.2848
  23   2.0000      -1.066434       -29.0191
  24   2.0000      -0.893752       -24.3202
  25   2.0000      -0.883165       -24.0321
  26   2.0000      -0.858915       -23.3723
  27   2.0000      -0.833495       -22.6806
  28   2.0000      -0.820435       -22.3252
  29   2.0000      -0.791374       -21.5344
  30   2.0000      -0.782016       -21.2797
  31   2.0000      -0.753834       -20.5129
  32   2.0000      -0.744638       -20.2626
  33   2.0000      -0.730731       -19.8842
  34   2.0000      -0.710895       -19.3444
  35   2.0000      -0.657975       -17.9044
  36   2.0000      -0.641136       -17.4462
  37   2.0000      -0.635693       -17.2981
  38   2.0000      -0.620221       -16.8771
  39   2.0000      -0.600621       -16.3437
  40   2.0000      -0.582676       -15.8554
  41   2.0000      -0.568972       -15.4825
  42   2.0000      -0.547496       -14.8981
  43   2.0000      -0.534037       -14.5319
  44   2.0000      -0.526867       -14.3368
  45   2.0000      -0.512524       -13.9465
  46   2.0000      -0.505481       -13.7548
  47   2.0000      -0.496980       -13.5235
  48   2.0000      -0.474476       -12.9112
  49   2.0000      -0.458953       -12.4888
  50   2.0000      -0.451694       -12.2912
  51   2.0000      -0.449590       -12.2340
  52   2.0000      -0.433058       -11.7841
  53   2.0000      -0.426978       -11.6186
  54   2.0000      -0.424257       -11.5446
  55   2.0000      -0.417738       -11.3672
  56   2.0000      -0.412229       -11.2173
  57   2.0000      -0.405805       -11.0425
  58   2.0000      -0.402004       -10.9391
  59   2.0000      -0.398092       -10.8326
  60   2.0000      -0.385722       -10.4960
  61   2.0000      -0.385205       -10.4819
  62   2.0000      -0.376672       -10.2498
  63   2.0000      -0.365498        -9.9457
  64   2.0000      -0.358666        -9.7598
  65   2.0000      -0.353916        -9.6306
  66   2.0000      -0.347018        -9.4428
  67   2.0000      -0.341550        -9.2940
  68   2.0000      -0.328458        -8.9378
  69   2.0000      -0.327136        -8.9018
  70   2.0000      -0.321636        -8.7522
  71   2.0000      -0.297313        -8.0903
  72   2.0000      -0.281396        -7.6572
  73   2.0000      -0.266358        -7.2480
  74   2.0000      -0.243594        -6.6285
  75   2.0000      -0.236955        -6.4479
  76   2.0000      -0.194778        -5.3002
  77   0.0000      -0.089528        -2.4362
  78   0.0000      -0.049317        -1.3420
  79   0.0000      -0.040966        -1.1147
  80   0.0000      -0.017179        -0.4675
  81   0.0000       0.006725         0.1830

MULLIKEN ATOMIC CHARGES
-----------------------
   0 C :    0.060331
   1 C :   -0.022734
   2 C :   -0.030454
   3 C :    0.071262
   4 C :   -0.012212
   5 C :   -0.028980
   6 C :    0.056442
   7 C :    0.102558
   8 C :   -0.045051
   9 C :   -0.025792
  10 C :    0.061520
  11 C :   -0.006572
  12 C :   -0.043688
  13 C :    0.084529
  14 C :    0.055140
  15 C :    0.066172
  16 C :    0.023187
  17 C :   -0.021173
  18 C :   -0.123645
  19 C :    0.074544
  20 C :   -0.099060
  21 O :   -0.183373
  22 N :    0.034145
  23 H :   -0.026688
  24 H :   -0.030138
  25 H :   -0.031157
  26 H :   -0.030679
  27 H :   -0.040387
  28 H :   -0.031977
  29 H :   -0.029846
  30 H :   -0.030375
  31 H :    0.003141
  32 H :   -0.016121
  33 H :    0.034931
  34 H :   -0.003406
  35 H :    0.185605
Sum of atomic charges:    0.0000000

LOEWDIN ATOMIC CHARGES
----------------------
   0 C :   -0.037905
   1 C :   -0.005817
   2 C :   -0.021048
   3 C :   -0.007172
   4 C :   -0.019137
   5 C :   -0.007949
   6 C :   -0.017523
   7 C :   -0.003128
   8 C :   -0.026313
   9 C :   -0.011068
  10 C :   -0.025627
  11 C :   -0.006280
  12 C :   -0.026380
  13 C :    0.002042
  14 C :    0.001832
  15 C :    0.004798
  16 C :    0.032939
  17 C :   -0.089114
  18 C :   -0.076738
  19 C :    0.063531
  20 C :   -0.037439
  21 O :   -0.044227
  22 N :   -0.079718
  23 H :    0.027756
  24 H :    0.028634
  25 H :    0.028682
  26 H :    0.028348
  27 H :    0.021626
  28 H :    0.027980
  29 H :    0.029470
  30 H :    0.027246
  31 H :    0.035979
  32 H :    0.031113
  33 H :    0.043081
  34 H :    0.010705
  35 H :    0.096822

  Mayer bond orders larger than 0.100000
B(  0-C ,  1-C ) :   1.3062 B(  0-C , 13-C ) :   1.2483 B(  0-C , 16-C ) :   1.1244
B(  1-C ,  2-C ) :   1.4022 B(  1-C , 23-H ) :   0.9760 B(  2-C ,  3-C ) :   1.2656
B(  2-C , 24-H ) :   0.9881 B(  3-C ,  4-C ) :   1.1638 B(  3-C , 14-C ) :   1.2421
B(  4-C ,  5-C ) :   1.5356 B(  4-C , 25-H ) :   0.9844 B(  5-C ,  6-C ) :   1.1690
B(  5-C , 26-H ) :   0.9790 B(  6-C ,  7-C ) :   1.2619 B(  6-C , 15-C ) :   1.2338
B(  7-C ,  8-C ) :   1.3048 B(  7-C , 17-C ) :   1.1178 B(  8-C ,  9-C ) :   1.4036
B(  8-C , 27-H ) :   0.9758 B(  9-C , 10-C ) :   1.2698 B(  9-C , 28-H ) :   0.9862
B( 10-C , 11-C ) :   1.1623 B( 10-C , 15-C ) :   1.2451 B( 11-C , 12-C ) :   1.5388
B( 11-C , 29-H ) :   0.9831 B( 12-C , 13-C ) :   1.1694 B( 12-C , 30-H ) :   0.9781
B( 13-C , 14-C ) :   1.2350 B( 14-C , 15-C ) :   1.2275 B( 16-C , 18-C ) :   1.7390
B( 16-C , 31-H ) :   0.9603 B( 17-C , 19-C ) :   1.7146 B( 17-C , 32-H ) :   0.9545
B( 18-C , 20-C ) :   1.1094 B( 18-C , 33-H ) :   0.9436 B( 19-C , 21-O ) :   1.2106
B( 19-C , 34-H ) :   0.9535 B( 20-C , 22-N ) :   2.9619 B( 21-O , 35-H ) :   0.9640

FINAL SINGLE POINT ENERGY      -936.788741844106

DIPOLE MOMENT
-------------
                                X             Y             Z
Electronic contribution:     -3.68268       5.75751      -0.57532
Nuclear contribution   :      5.48827      -8.67514       0.86365
                        -----------------------------------------
Total Dipole Moment    :      1.80559      -2.91763       0.28834
                        -----------------------------------------
Magnitude (a.u.)       :      3.44323
Magnitude (Debye)      :      8.75200

VIBRATIONAL FREQUENCIES
-----------------------

Scaling factor for frequencies =  1.000000000  (already applied!)

   0:         0.00 cm**-1
   1:         0.00 cm**-1
   2:         0.00 cm**-1
   3:         0.00 cm**-1
   4:         0.00 cm**-1
   5:         0.00 cm**-1
   6:       -73.37 cm**-1 ***imaginary mode***
   7:       -45.65 cm**-1 ***imaginary mode***
   8:        26.09 cm**-1
   9:        65.16 cm**-1
  10:        71.89 cm**-1
  11:        99.85 cm**-1
  12:       121.04 cm**-1
  13:       142.47 cm**-1
  14:       193.34 cm**-1
  15:       220.71 cm**-1
  16:       221.26 cm**-1
  17:       255.15 cm**-1
  18:       261.12 cm**-1
  19:       285.80 cm**-1
  20:       316.35 cm**-1
  21:       332.99 cm**-1
  22:       352.50 cm**-1
  23:       378.04 cm**-1
  24:       421.01 cm**-1
  25:       442.59 cm**-1
  26:       449.92 cm**-1
  27:       493.56 cm**-1
  28:       510.24 cm**-1
  29:       514.47 cm**-1
  30:       526.09 cm**-1
  31:       531.31 cm**-1
  32:       562.79 cm**-1
  33:       564.68 cm**-1
  34:       583.29 cm**-1
  35:       621.82 cm**-1
  36:       633.42 cm**-1
  37:       679.63 cm**-1
  38:       703.03 cm**-1
  39:       718.82 cm**-1
  40:       755.11 cm**-1
  41:       764.68 cm**-1
  42:       784.35 cm**-1
  43:       815.53 cm**-1
  44:       816.29 cm**-1
  45:       832.40 cm**-1
  46:       853.84 cm**-1
  47:       858.64 cm**-1
  48:       875.88 cm**-1
  49:       886.10 cm**-1
  50:       894.62 cm**-1
  51:       944.86 cm**-1
  52:       947.52 cm**-1
  53:       984.71 cm**-1
  54:       984.80 cm**-1
  55:       990.61 cm**-1
  56:       999.86 cm**-1
  57:      1001.60 cm**-1
  58:      1011.91 cm**-1
  59:      1017.55 cm**-1
  60:      1040.52 cm**-1
  61:      1116.64 cm**-1
  62:      1131.39 cm**-1
  63:      1167.99 cm**-1
  64:      1184.41 cm**-1
  65:      1195.46 cm**-1
  66:      1204.13 cm**-1
  67:      1209.66 cm**-1
  68:      1231.72 cm**-1
  69:      1250.48 cm**-1
  70:      1265.70 cm**-1
  71:      1269.74 cm**-1
  72:      1282.03 cm**-1
  73:      1283.89 cm**-1
  74:      1331.56 cm**-1
  75:      1335.31 cm**-1
  76:      1351.23 cm**-1
  77:      1373.53 cm**-1
  78:      1384.98 cm**-1
  79:      1406.35 cm**-1
  80:      1412.10 cm**-1
  81:      1425.11 cm**-1
  82:      1443.66 cm**-1
  83:      1468.93 cm**-1
  84:      1505.61 cm**-1
  85:      1537.04 cm**-1
  86:      1547.67 cm**-1
  87:      1575.83 cm**-1
  88:      1622.44 cm**-1
  89:      1637.88 cm**-1
  90:      1657.66 cm**-1
  91:      1663.87 cm**-1
  92:      1674.91 cm**-1
  93:      1733.82 cm**-1
  94:      2336.73 cm**-1
  95:      3154.70 cm**-1
  96:      3171.39 cm**-1
  97:      3174.23 cm**-1
  98:      3174.49 cm**-1
  99:      3176.12 cm**-1
 100:      3179.38 cm**-1
 101:      3193.58 cm**-1
 102:      3199.59 cm**-1
 103:      3200.64 cm**-1
 104:      3201.01 cm**-1
 105:      3222.61 cm**-1
 106:      3224.17 cm**-1
 107:      3849.67 cm**-1

IR SPECTRUM
-----------

 Mode   freq       eps      Int      T**2         TX        TY        TZ
       cm**-1   L/(mol*cm) km/mol    a.u.
----------------------------------------------------------------------------
  8:     26.09   0.000174    0.88  0.002082  (-0.002357  0.003896  0.045402)
  9:     65.16   0.000051    0.26  0.000245  (-0.000525  0.002237  0.015490)
 10:     71.89   0.000402    2.03  0.001745  ( 0.017842  0.037667 -0.002798)
 11:     99.85   0.000392    1.98  0.001226  (-0.002773  0.002167  0.034834)
 12:    121.04   0.000447    2.26  0.001154  (-0.030234 -0.015436 -0.001068)
 13:    142.47   0.000291    1.47  0.000637  ( 0.002234 -0.001293 -0.025110)
 14:    193.34   0.000043    0.22  0.000069  ( 0.000872  0.001396 -0.008142)
 15:    220.71   0.001363    6.89  0.001928  ( 0.003669  0.000347 -0.043751)
 16:    221.26   0.000300    1.51  0.000423  ( 0.007715  0.016684  0.009208)
 17:    255.15   0.000188    0.95  0.000230  (-0.008563 -0.012536  0.000022)
 18:    261.12   0.000058    0.29  0.000069  ( 0.001060 -0.000093 -0.008260)
 19:    285.80   0.002220   11.22  0.002424  (-0.002863  0.002862  0.049064)
 20:    316.35   0.000815    4.12  0.000804  (-0.019452  0.020511 -0.002230)
 21:    332.99   0.015053   76.07  0.014107  ( 0.006179 -0.006331 -0.118444)
 22:    352.50   0.000570    2.88  0.000505  (-0.017101  0.013938 -0.004238)
 23:    378.04   0.003671   18.55  0.003031  (-0.003071  0.003983  0.054820)
 24:    421.01   0.001802    9.11  0.001335  ( 0.020902 -0.029786  0.003369)
 25:    442.59   0.001521    7.69  0.001073  ( 0.022153 -0.024000  0.002410)
 26:    449.92   0.000038    0.19  0.000027  ( 0.000833 -0.000976 -0.005002)
 27:    493.56   0.000514    2.60  0.000325  ( 0.000848 -0.001829 -0.017921)
 28:    510.24   0.000643    3.25  0.000393  ( 0.009457 -0.017321  0.002008)
 29:    514.47   0.000125    0.63  0.000076  ( 0.006235  0.006027 -0.000688)
 30:    526.09   0.000018    0.09  0.000011  (-0.000202  0.000625 -0.003200)
 31:    531.31   0.001786    9.03  0.001049  ( 0.007764 -0.031355  0.002408)
 32:    562.79   0.000470    2.38  0.000261  (-0.009471  0.013036 -0.001073)
 33:    564.68   0.000000    0.00  0.000000  ( 0.000094 -0.000064  0.000192)
 34:    583.29   0.000155    0.78  0.000083  (-0.000280  0.001008  0.009034)
 35:    621.82   0.003379   17.07  0.001696  ( 0.018293 -0.036731  0.003421)
 36:    633.42   0.001151    5.82  0.000567  (-0.012604  0.020092 -0.002162)
 37:    679.63   0.000019    0.10  0.000009  (-0.000590  0.000363 -0.002903)
 38:    703.03   0.000238    1.20  0.000106  ( 0.006074 -0.008252  0.000819)
 39:    718.82   0.000967    4.89  0.000420  (-0.000677  0.001469  0.020424)
 40:    755.11   0.002840   14.35  0.001173  ( 0.001064 -0.002565 -0.034143)
 41:    764.68   0.000973    4.92  0.000397  (-0.012253  0.015692 -0.000862)
 42:    784.35   0.000294    1.49  0.000117  (-0.007456  0.007811 -0.000677)
 43:    815.53   0.000076    0.38  0.000029  (-0.001495  0.002677 -0.004441)
 44:    816.29   0.010449   52.80  0.003994  ( 0.029987 -0.055380  0.005314)
 45:    832.40   0.002552   12.90  0.000957  ( 0.001515 -0.003386 -0.030708)
 46:    853.84   0.000025    0.13  0.000009  (-0.001269  0.001421  0.002349)
 47:    858.64   0.002705   13.67  0.000983  ( 0.022070 -0.022133  0.002490)
 48:    875.88   0.007365   37.22  0.002624  ( 0.001876 -0.004001 -0.051034)
 49:    886.10   0.001433    7.24  0.000505  (-0.001677  0.003181  0.022179)
 50:    894.62   0.001762    8.91  0.000615  (-0.000431  0.001536  0.024743)
 51:    944.86   0.000139    0.70  0.000046  (-0.000165 -0.000029  0.006772)
 52:    947.52   0.006840   34.57  0.002253  (-0.002862  0.003910  0.047216)
 53:    984.71   0.002376   12.01  0.000753  (-0.007230  0.016264  0.020882)
 54:    984.80   0.002443   12.35  0.000774  (-0.004682  0.011024 -0.025116)
 55:    990.61   0.000041    0.21  0.000013  ( 0.000010  0.000647  0.003533)
 56:    999.86   0.001174    5.93  0.000367  ( 0.011590 -0.015098  0.002058)
 57:   1001.60   0.001175    5.94  0.000366  ( 0.000987 -0.002023 -0.018999)
 58:   1011.91   0.000050    0.25  0.000015  (-0.000250  0.000396  0.003888)
 59:   1017.55   0.000002    0.01  0.000000  ( 0.000137 -0.000184  0.000660)
 60:   1040.52   0.000089    0.45  0.000027  (-0.004657 -0.002230 -0.000051)
 61:   1116.64   0.001697    8.58  0.000474  (-0.007882  0.020239 -0.001578)
 62:   1131.39   0.000137    0.69  0.000038  (-0.005728  0.002218 -0.000320)
 63:   1167.99   0.002256   11.40  0.000603  (-0.002224  0.024400 -0.001543)
 64:   1184.41   0.000379    1.91  0.000100  (-0.005386  0.008373 -0.000809)
 65:   1195.46   0.000230    1.16  0.000060  ( 0.005994 -0.004900  0.000385)
 66:   1204.13   0.005823   29.43  0.001509  (-0.036531  0.013052 -0.002037)
 67:   1209.66   0.016249   82.11  0.004192  ( 0.055367 -0.033267  0.004424)
 68:   1231.72   0.079621  402.37  0.020172  ( 0.085274 -0.113040  0.011081)
 69:   1250.48   0.051087  258.17  0.012749  ( 0.062901 -0.093309  0.009260)
 70:   1265.70   0.009034   45.65  0.002227  (-0.020938  0.042076 -0.004300)
 71:   1269.74   0.001293    6.53  0.000318  (-0.001761  0.017641 -0.001837)
 72:   1282.03   0.001820    9.20  0.000443  ( 0.015824 -0.013773  0.001727)
 73:   1283.89   0.012275   62.03  0.002984  (-0.041914  0.034792 -0.004030)
 74:   1331.56   0.009681   48.92  0.002269  ( 0.026404 -0.039463  0.003780)
 75:   1335.31   0.002712   13.71  0.000634  ( 0.015330 -0.019904  0.001644)
 76:   1351.23   0.000783    3.96  0.000181  (-0.009131 -0.009867  0.000106)
 77:   1373.53   0.000048    0.24  0.000011  (-0.002693  0.001920 -0.000253)
 78:   1384.98   0.014107   71.29  0.003179  (-0.045985  0.032320 -0.004388)
 79:   1406.35   0.001068    5.40  0.000237  (-0.006847  0.013731 -0.001257)
 80:   1412.10   0.004343   21.95  0.000960  ( 0.020489 -0.023090  0.002613)
 81:   1425.11   0.001272    6.43  0.000279  (-0.003157 -0.016347  0.001178)
 82:   1443.66   0.000613    3.10  0.000133  (-0.005178  0.010240 -0.000925)
 83:   1468.93   0.001329    6.72  0.000282  (-0.014024  0.009180 -0.001206)
 84:   1505.61   0.000562    2.84  0.000116  ( 0.007845  0.007401 -0.000268)
 85:   1537.04   0.000562    2.84  0.000114  ( 0.010654  0.000786  0.000171)
 86:   1547.67   0.004695   23.73  0.000947  ( 0.013316 -0.027602  0.002731)
 87:   1575.83   0.003919   19.80  0.000776  ( 0.018598 -0.020622  0.002217)
 88:   1622.44   0.001026    5.18  0.000197  ( 0.002706 -0.013736  0.001141)
 89:   1637.88   0.062682  316.77  0.011943  (-0.058998  0.091512 -0.009355)
 90:   1657.66   0.006591   33.31  0.001241  ( 0.000294 -0.035064  0.003336)
 91:   1663.87   0.020469  103.44  0.003839  ( 0.035247 -0.050662  0.005491)
 92:   1674.91   0.000763    3.85  0.000142  (-0.001558 -0.011806  0.000545)
 93:   1733.82   0.083806  423.52  0.015084  (-0.061975  0.105619 -0.009361)
 94:   2336.73   0.028931  146.21  0.003864  ( 0.038986 -0.048071  0.005741)
 95:   3154.70   0.002166   10.95  0.000214  ( 0.014513  0.001788  0.000699)
 96:   3171.39   0.000137    0.69  0.000014  (-0.001371  0.003399 -0.000262)
 97:   3174.23   0.000227    1.14  0.000022  ( 0.001665  0.004402 -0.000349)
 98:   3174.49   0.002471   12.49  0.000243  ( 0.015516 -0.001344  0.000582)
 99:   3176.12   0.003112   15.73  0.000306  ( 0.016409 -0.005921  0.001193)
100:   3179.38   0.000793    4.01  0.000078  (-0.007046 -0.005307  0.000157)
101:   3193.58   0.004838   24.45  0.000473  ( 0.006672  0.020652 -0.001322)
102:   3199.59   0.002080   10.51  0.000203  (-0.006627 -0.012592  0.000659)
103:   3200.64   0.001591    8.04  0.000155  (-0.005039  0.011343 -0.001047)
104:   3201.01   0.000249    1.26  0.000024  ( 0.003297 -0.003626  0.000469)
105:   3222.61   0.002903   14.67  0.000281  ( 0.015756 -0.005644  0.001009)
106:   3224.17   0.002673   13.51  0.000259  (-0.015356  0.004689 -0.000931)
107:   3849.67   0.063883  322.84  0.005179  (-0.022813  0.068072 -0.004920)

--------------------------
THERMOCHEMISTRY AT 298.15K
--------------------------

Temperature         ... 298.15 K
Pressure            ... 1.00 atm
Total Mass          ... 295.34 AMU

Throughout the following assumptions are being made:
  (1) The electronic state is orbitally nondegenerate
  (2) There are no thermally accessible electronically excited states
  (3) Hindered rotations indicated by low frequency modes are not
      treated as such but are treated as vibrations and this may
      cause some error
  (4) All equations used are the standard statistical mechanics
      equations for an ideal gas
  (5) All vibrations are strictly harmonic

freq.      26.09  E(vib)   ...       0.56
freq.      65.16  E(vib)   ...       0.50
freq.      71.89  E(vib)   ...       0.50
freq.      99.85  E(vib)   ...       0.46
freq.     121.04  E(vib)   ...       0.44
freq.     142.47  E(vib)   ...       0.41
freq.     193.34  E(vib)   ...       0.36
freq.     220.71  E(vib)   ...       0.33
freq.     221.26  E(vib)   ...       0.33
freq.     255.15  E(vib)   ...       0.30
freq.     261.12  E(vib)   ...       0.30
freq.     285.80  E(vib)   ...       0.27
freq.     316.35  E(vib)   ...       0.25
freq.     332.99  E(vib)   ...       0.24
freq.     352.50  E(vib)   ...       0.22
freq.     378.04  E(vib)   ...       0.21
freq.     421.01  E(vib)   ...       0.18
freq.     442.59  E(vib)   ...       0.17
freq.     449.92  E(vib)   ...       0.17
freq.     493.56  E(vib)   ...       0.14
freq.     510.24  E(vib)   ...       0.14
freq.     514.47  E(vib)   ...       0.13
freq.     526.09  E(vib)   ...       0.13
freq.     531.31  E(vib)   ...       0.13
freq.     562.79  E(vib)   ...       0.11
freq.     564.68  E(vib)   ...       0.11
freq.     583.29  E(vib)   ...       0.11
freq.     621.82  E(vib)   ...       0.09
freq.     633.42  E(vib)   ...       0.09
freq.     679.63  E(vib)   ...       0.08
freq.     703.03  E(vib)   ...       0.07
freq.     718.82  E(vib)   ...       0.07
freq.     755.11  E(vib)   ...       0.06
freq.     764.68  E(vib)   ...       0.06
freq.     784.35  E(vib)   ...       0.05
freq.     815.53  E(vib)   ...       0.05
freq.     816.29  E(vib)   ...       0.05
freq.     832.40  E(vib)   ...       0.04
freq.     853.84  E(vib)   ...       0.04
freq.     858.64  E(vib)   ...       0.04
freq.     875.88  E(vib)   ...       0.04
freq.     886.10  E(vib)   ...       0.04
freq.     894.62  E(vib)   ...       0.03
freq.     944.86  E(vib)   ...       0.03
freq.     947.52  E(vib)   ...       0.03
freq.     984.71  E(vib)   ...       0.02
freq.     984.80  E(vib)   ...       0.02
freq.     990.61  E(vib)   ...       0.02
freq.     999.86  E(vib)   ...       0.02
freq.    1001.60  E(vib)   ...       0.02
freq.    1011.91  E(vib)   ...       0.02
freq.    1017.55  E(vib)   ...       0.02
freq.    1040.52  E(vib)   ...       0.02
freq.    1116.64  E(vib)   ...       0.01
freq.    1131.39  E(vib)   ...       0.01
freq.    1167.99  E(vib)   ...       0.01
freq.    1184.41  E(vib)   ...       0.01
freq.    1195.46  E(vib)   ...       0.01
freq.    1204.13  E(vib)   ...       0.01
freq.    1209.66  E(vib)   ...       0.01
freq.    1231.72  E(vib)   ...       0.01
freq.    1250.48  E(vib)   ...       0.01
freq.    1265.70  E(vib)   ...       0.01
freq.    1269.74  E(vib)   ...       0.01
freq.    1282.03  E(vib)   ...       0.01
freq.    1283.89  E(vib)   ...       0.01
freq.    1331.56  E(vib)   ...       0.01
freq.    1335.31  E(vib)   ...       0.01
freq.    1351.23  E(vib)   ...       0.01
freq.    1373.53  E(vib)   ...       0.01
freq.    1384.98  E(vib)   ...       0.00
freq.    1406.35  E(vib)   ...       0.00
freq.    1412.10  E(vib)   ...       0.00
freq.    1425.11  E(vib)   ...       0.00
freq.    1443.66  E(vib)   ...       0.00
freq.    1468.93  E(vib)   ...       0.00
freq.    1505.61  E(vib)   ...       0.00
freq.    1537.04  E(vib)   ...       0.00
freq.    1547.67  E(vib)   ...       0.00
freq.    1575.83  E(vib)   ...       0.00
freq.    1622.44  E(vib)   ...       0.00
freq.    1637.88  E(vib)   ...       0.00
freq.    1657.66  E(vib)   ...       0.00
freq.    1663.87  E(vib)   ...       0.00
freq.    1674.91  E(vib)   ...       0.00
freq.    1733.82  E(vib)   ...       0.00
freq.    2336.73  E(vib)   ...       0.00
freq.    3154.70  E(vib)   ...       0.00
freq.    3171.39  E(vib)   ...       0.00
freq.    3174.23  E(vib)   ...       0.00
freq.    3174.49  E(vib)   ...       0.00
freq.    3176.12  E(vib)   ...       0.00
freq.    3179.38  E(vib)   ...       0.00
freq.    3193.58  E(vib)   ...       0.00
freq.    3199.59  E(vib)   ...       0.00
freq.    3200.64  E(vib)   ...       0.00
freq.    3201.01  E(vib)   ...       0.00
freq.    3222.61  E(vib)   ...       0.00
freq.    3224.17  E(vib)   ...       0.00
freq.    3849.67  E(vib)   ...       0.00

------------
INNER ENERGY
------------

The inner energy is: U= E(el) + E(ZPE) + E(vib) + E(rot) + E(trans)
    E(el)   - is the total energy from the electronic structure calculation
              = E(kin-el) + E(nuc-el) + E(el-el) + E(nuc-nuc)
    E(ZPE)  - the the zero temperature vibrational energy from the frequency calculation
    E(vib)  - the the finite temperature correction to E(ZPE) due to population
              of excited vibrational states
    E(rot)  - is the rotational thermal energy
    E(trans)- is the translational thermal energy

Summary of contributions to the inner energy U:
Electronic energy                ...   -936.78874184 Eh
Zero point energy                ...      0.27725935 Eh     173.98 kcal/mol
Thermal vibrational correction   ...      0.01358568 Eh       8.53 kcal/mol
Thermal rotational correction    ...      0.00141627 Eh       0.89 kcal/mol
Thermal translational correction ...      0.00141627 Eh       0.89 kcal/mol
-----------------------------------------------------------------------
Total thermal energy                   -936.49506427 Eh

Summary of corrections to the electronic energy:
(perhaps to be used in another calculation)
Total thermal correction                  0.01641822 Eh      10.30 kcal/mol
Non-thermal (ZPE) correction              0.27725935 Eh     173.98 kcal/mol
-----------------------------------------------------------------------
Total correction                          0.29367758 Eh     184.29 kcal/mol

--------
ENTHALPY
--------

The enthalpy is H = U + kB*T
                kB is Boltzmann's constant
Total free energy                 ...   -936.49506427 Eh
Thermal Enthalpy correction       ...      0.00094421 Eh       0.59 kcal/mol
-----------------------------------------------------------------------
Total Enthalpy                    ...   -936.49412006 Eh

Rotational constants in cm-1:     0.026215     0.003928     0.003416

                             ****ORCA TERMINATED NORMALLY****
TOTAL RUN TIME: 0 days 0 hours 26 minutes 32 seconds 250 msec
