                         Program Version 5.0.4 -  RELEASE  -
|  1> ! B3LYP def2-SVP Opt PAL8 FREQ defgrid3 slowconv VeryTightSCF
|  2> *xyz 0 1
|  3>  C        -7.212639        2.890011       -0.262604
|  4>  C        -5.953859        3.529407       -0.264073
|  5>  C        -4.770151        2.821180       -0.160291
|  6>  C        -4.777689        1.415848       -0.050655
|  7>  C        -3.566231        0.662075        0.060872
|  8>  C        -3.579977       -0.699930        0.159340
|  9>  C        -4.806245       -1.450344        0.152358
| 10>  C        -4.836502       -2.880202        0.233390
| 11>  C        -6.098390       -3.515665        0.236109
| 12>  C        -7.285053       -2.804371        0.170402
| 13>  C        -7.285510       -1.399618        0.074651
| 14>  C        -8.496658       -0.645007       -0.021956
| 15>  C        -8.486705        0.716493       -0.130001
| 16>  C        -7.257649        1.462489       -0.148641
| 17>  C        -6.027202        0.722460       -0.045840
| 18>  C        -6.036090       -0.709900        0.061203
| 19>  C        -8.439050        3.674267       -0.375498
| 20>  C        -3.598809       -3.660629        0.285582
| 21>  C        -8.544079        5.022671       -0.495417
| 22>  C        -3.502774       -4.990138        0.586281
| 23>  C        -9.804522        5.680547       -0.598579
| 24>  O        -2.283997       -5.595022        0.553372
| 25>  N       -10.824086        6.234890       -0.684006
| 26>  H        -5.904777        4.616614       -0.347833
| 27>  H        -3.813438        3.350151       -0.162224
| 28>  H        -2.615670        1.202543        0.068533
| 29>  H        -2.628299       -1.222091        0.252368
| 30>  H        -6.152225       -4.607449        0.263275
| 31>  H        -8.239778       -3.337807        0.171335
| 32>  H        -9.448213       -1.184023       -0.009501
| 33>  H        -9.441452        1.236485       -0.201166
| 34>  H        -9.381537        3.124952       -0.363779
| 35>  H        -2.633355       -3.142921        0.048006
| 36>  H        -7.668136        5.677046       -0.518738
| 37>  H        -4.384713       -5.646607        0.876333
| 38>  H        -2.405306       -6.540149        0.840493
| 39> *
| 40>
| 41>                          ****END OF INPUT****
 Total Charge           Charge          ....    0
 Multiplicity           Mult            ....    1
 Number of Electrons    NEL             ....  154
FINAL SINGLE POINT ENERGY      -936.785803192329
FINAL SINGLE POINT ENERGY      -936.788831592815
FINAL SINGLE POINT ENERGY      -936.788954389106
FINAL SINGLE POINT ENERGY      -936.789041174028
FINAL SINGLE POINT ENERGY      -936.789084844720
FINAL SINGLE POINT ENERGY      -936.789134261117
FINAL SINGLE POINT ENERGY      -936.789152844042
FINAL SINGLE POINT ENERGY      -936.789159682114
                    ***********************HURRAY********************

CARTESIAN COORDINATES (ANGSTROEM)
---------------------------------
  C     -7.209377    2.882563   -0.245865
  C     -5.948871    3.519383   -0.244443
  C     -4.765779    2.807167   -0.165657
  C     -4.774664    1.399603   -0.085038
  C     -3.563256    0.641963    0.006942
  C     -3.580069   -0.721762    0.082921
  C     -4.810266   -1.464108    0.066146
  C     -4.841241   -2.891550    0.136460
  C     -6.098228   -3.532442    0.129929
  C     -7.287799   -2.820401    0.075196
  C     -7.287940   -1.415344    0.000688
  C     -8.498737   -0.655891   -0.077848
  C     -8.486442    0.707187   -0.158159
  C     -7.256305    1.453370   -0.165691
  C     -6.026612    0.709859   -0.087416
  C     -6.038544   -0.723635   -0.008731
  C     -8.435140    3.671977   -0.326151
  C     -3.604667   -3.676743    0.198310
  C     -8.538247    5.023037   -0.411615
  C     -3.493910   -4.905795    0.738862
  C     -9.798201    5.686067   -0.483936
  O     -2.324569   -5.588427    0.715394
  N    -10.816861    6.245330   -0.543854
  H     -5.898430    4.608085   -0.304921
  H     -3.808300    3.334778   -0.164194
  H     -2.612147    1.181240    0.021152
  H     -2.634363   -1.257429    0.168022
  H     -6.137485   -4.624003    0.134166
  H     -8.242454   -3.353901    0.066022
  H     -9.451406   -1.193037   -0.073206
  H     -9.440646    1.229793   -0.216506
  H     -9.378617    3.124334   -0.316815
  H     -2.687219   -3.252296   -0.217088
  H     -7.660856    5.675659   -0.429789
  H     -4.338165   -5.404435    1.230366
  H     -2.414951   -6.411938    1.209448

 Multiplicity           Mult            ....    1
 Number of Electrons    NEL             ....  154
 Basis Dimension        Dim             ....  387

ORBITAL ENERGIES
----------------

  NO   OCC          E(Eh)            E(eV)
   0   2.0000     -19.181177      -521.9464
   1   2.0000     -14.314012      -389.5041
   2   2.0000     -10.259545      -279.1764
   3   2.0000     -10.223866      -278.2055
   4   2.0000     -10.221568      -278.1430
   5   2.0000     -10.215915      -277.9892
   6   2.0000     -10.214413      -277.9483
   7   2.0000     -10.212561      -277.8979
   8   2.0000     -10.211975      -277.8820
   9   2.0000     -10.208309      -277.7822
  10   2.0000     -10.207991      -277.7736
  11   2.0000     -10.206452      -277.7317
  12   2.0000     -10.206146      -277.7233
  13   2.0000     -10.203011      -277.6380
  14   2.0000     -10.202389      -277.6211
  15   2.0000     -10.201180      -277.5882
  16   2.0000     -10.200562      -277.5714
  17   2.0000     -10.200224      -277.5622
  18   2.0000     -10.199843      -277.5518
  19   2.0000     -10.199160      -277.5332
  20   2.0000     -10.199119      -277.5321
  21   2.0000     -10.198011      -277.5020
  22   2.0000     -10.189243      -277.2634
  23   2.0000      -1.065052       -28.9815
  24   2.0000      -0.894195       -24.3323
  25   2.0000      -0.883676       -24.0460
  26   2.0000      -0.859229       -23.3808
  27   2.0000      -0.833798       -22.6888
  28   2.0000      -0.820616       -22.3301
  29   2.0000      -0.791675       -21.5426
  30   2.0000      -0.781860       -21.2755
  31   2.0000      -0.753947       -20.5159
  32   2.0000      -0.744827       -20.2678
  33   2.0000      -0.730631       -19.8815
  34   2.0000      -0.710593       -19.3362
  35   2.0000      -0.658101       -17.9078
  36   2.0000      -0.640203       -17.4208
  37   2.0000      -0.635712       -17.2986
  38   2.0000      -0.620349       -16.8806
  39   2.0000      -0.600541       -16.3416
  40   2.0000      -0.582103       -15.8398
  41   2.0000      -0.566959       -15.4277
  42   2.0000      -0.547855       -14.9079
  43   2.0000      -0.534047       -14.5322
  44   2.0000      -0.526810       -14.3352
  45   2.0000      -0.512984       -13.9590
  46   2.0000      -0.504807       -13.7365
  47   2.0000      -0.497015       -13.5245
  48   2.0000      -0.474439       -12.9101
  49   2.0000      -0.458831       -12.4854
  50   2.0000      -0.451531       -12.2868
  51   2.0000      -0.450115       -12.2483
  52   2.0000      -0.434230       -11.8160
  53   2.0000      -0.429833       -11.6963
  54   2.0000      -0.422841       -11.5061
  55   2.0000      -0.418359       -11.3841
  56   2.0000      -0.410164       -11.1611
  57   2.0000      -0.405979       -11.0473
  58   2.0000      -0.402528       -10.9534
  59   2.0000      -0.398172       -10.8348
  60   2.0000      -0.385678       -10.4948
  61   2.0000      -0.383704       -10.4411
  62   2.0000      -0.375475       -10.2172
  63   2.0000      -0.365531        -9.9466
  64   2.0000      -0.360800        -9.8179
  65   2.0000      -0.353168        -9.6102
  66   2.0000      -0.347455        -9.4547
  67   2.0000      -0.342036        -9.3073
  68   2.0000      -0.329636        -8.9698
  69   2.0000      -0.324444        -8.8286
  70   2.0000      -0.322145        -8.7660
  71   2.0000      -0.297241        -8.0883
  72   2.0000      -0.279237        -7.5984
  73   2.0000      -0.266732        -7.2582
  74   2.0000      -0.243674        -6.6307
  75   2.0000      -0.237546        -6.4639
  76   2.0000      -0.196771        -5.3544
  77   0.0000      -0.089856        -2.4451
  78   0.0000      -0.049883        -1.3574
  79   0.0000      -0.038877        -1.0579
  80   0.0000      -0.017808        -0.4846
  81   0.0000       0.006006         0.1634

MULLIKEN ATOMIC CHARGES
-----------------------
   0 C :    0.060409
   1 C :   -0.022417
   2 C :   -0.030095
   3 C :    0.070985
   4 C :   -0.009867
   5 C :   -0.031723
   6 C :    0.058180
   7 C :    0.076289
   8 C :   -0.040216
   9 C :   -0.027973
  10 C :    0.064497
  11 C :   -0.006446
  12 C :   -0.041981
  13 C :    0.082680
  14 C :    0.056033
  15 C :    0.064481
  16 C :    0.023333
  17 C :   -0.038294
  18 C :   -0.122816
  19 C :    0.080675
  20 C :   -0.099160
  21 O :   -0.188448
  22 N :    0.034390
  23 H :   -0.026576
  24 H :   -0.029886
  25 H :   -0.030669
  26 H :   -0.027486
  27 H :   -0.033733
  28 H :   -0.030571
  29 H :   -0.029418
  30 H :   -0.030048
  31 H :    0.003150
  32 H :    0.001759
  33 H :    0.035020
  34 H :    0.000695
  35 H :    0.185250
Sum of atomic charges:   -0.0000000

LOEWDIN ATOMIC CHARGES
----------------------
   0 C :   -0.037399
   1 C :   -0.006054
   2 C :   -0.020433
   3 C :   -0.007255
   4 C :   -0.018344
   5 C :   -0.007840
   6 C :   -0.017421
   7 C :   -0.004721
   8 C :   -0.027177
   9 C :   -0.011941
  10 C :   -0.024707
  11 C :   -0.005981
  12 C :   -0.026042
  13 C :    0.001900
  14 C :    0.001670
  15 C :    0.004280
  16 C :    0.032921
  17 C :   -0.089126
  18 C :   -0.076247
  19 C :    0.060791
  20 C :   -0.037355
  21 O :   -0.046904
  22 N :   -0.079248
  23 H :    0.027806
  24 H :    0.028755
  25 H :    0.028776
  26 H :    0.028920
  27 H :    0.023010
  28 H :    0.028074
  29 H :    0.029626
  30 H :    0.027361
  31 H :    0.036030
  32 H :    0.032167
  33 H :    0.043171
  34 H :    0.012295
  35 H :    0.096640

  Mayer bond orders larger than 0.100000
B(  0-C ,  1-C ) :   1.3047 B(  0-C , 13-C ) :   1.2507 B(  0-C , 16-C ) :   1.1239
B(  1-C ,  2-C ) :   1.4040 B(  1-C , 23-H ) :   0.9761 B(  2-C ,  3-C ) :   1.2651
B(  2-C , 24-H ) :   0.9878 B(  3-C ,  4-C ) :   1.1639 B(  3-C , 14-C ) :   1.2417
B(  4-C ,  5-C ) :   1.5301 B(  4-C , 25-H ) :   0.9851 B(  5-C ,  6-C ) :   1.1714
B(  5-C , 26-H ) :   0.9769 B(  6-C ,  7-C ) :   1.2734 B(  6-C , 15-C ) :   1.2312
B(  7-C ,  8-C ) :   1.3257 B(  7-C , 17-C ) :   1.0824 B(  8-C ,  9-C ) :   1.3781
B(  8-C , 27-H ) :   0.9766 B(  9-C , 10-C ) :   1.2813 B(  9-C , 28-H ) :   0.9871
B( 10-C , 11-C ) :   1.1577 B( 10-C , 15-C ) :   1.2417 B( 11-C , 12-C ) :   1.5438
B( 11-C , 29-H ) :   0.9829 B( 12-C , 13-C ) :   1.1669 B( 12-C , 30-H ) :   0.9780
B( 13-C , 14-C ) :   1.2351 B( 14-C , 15-C ) :   1.2285 B( 16-C , 18-C ) :   1.7395
B( 16-C , 31-H ) :   0.9603 B( 17-C , 19-C ) :   1.7402 B( 17-C , 32-H ) :   0.9474
B( 18-C , 20-C ) :   1.1092 B( 18-C , 33-H ) :   0.9436 B( 19-C , 21-O ) :   1.1973
B( 19-C , 34-H ) :   0.9570 B( 20-C , 22-N ) :   2.9620 B( 21-O , 35-H ) :   0.9650

FINAL SINGLE POINT ENERGY      -936.789160063669

DIPOLE MOMENT
-------------
                                X             Y             Z
Electronic contribution:     -3.69951       5.75089      -0.73523
Nuclear contribution   :      5.49855      -8.48409       1.35064
                        -----------------------------------------
Total Dipole Moment    :      1.79904      -2.73320       0.61541
                        -----------------------------------------
Magnitude (a.u.)       :      3.32951
Magnitude (Debye)      :      8.46294

VIBRATIONAL FREQUENCIES
-----------------------

Scaling factor for frequencies =  1.000000000  (already applied!)

   0:         0.00 cm**-1
   1:         0.00 cm**-1
   2:         0.00 cm**-1
   3:         0.00 cm**-1
   4:         0.00 cm**-1
   5:         0.00 cm**-1
   6:       -45.58 cm**-1 ***imaginary mode***
   7:        25.66 cm**-1
   8:        57.42 cm**-1
   9:        70.10 cm**-1
  10:        96.30 cm**-1
  11:        99.60 cm**-1
  12:       120.47 cm**-1
  13:       147.24 cm**-1
  14:       200.81 cm**-1
  15:       219.87 cm**-1
  16:       221.08 cm**-1
  17:       255.63 cm**-1
  18:       265.98 cm**-1
  19:       289.66 cm**-1
  20:       313.67 cm**-1
  21:       335.70 cm**-1
  22:       355.31 cm**-1
  23:       378.84 cm**-1
  24:       420.18 cm**-1
  25:       443.43 cm**-1
  26:       452.19 cm**-1
  27:       493.26 cm**-1
  28:       509.94 cm**-1
  29:       515.78 cm**-1
  30:       527.45 cm**-1
  31:       532.80 cm**-1
  32:       562.17 cm**-1
  33:       565.97 cm**-1
  34:       582.01 cm**-1
  35:       620.79 cm**-1
  36:       632.30 cm**-1
  37:       678.14 cm**-1
  38:       702.61 cm**-1
  39:       719.09 cm**-1
  40:       755.04 cm**-1
  41:       765.10 cm**-1
  42:       783.32 cm**-1
  43:       815.60 cm**-1
  44:       817.39 cm**-1
  45:       832.40 cm**-1
  46:       852.31 cm**-1
  47:       859.71 cm**-1
  48:       876.89 cm**-1
  49:       885.35 cm**-1
  50:       890.26 cm**-1
  51:       942.08 cm**-1
  52:       948.02 cm**-1
  53:       985.22 cm**-1
  54:       986.16 cm**-1
  55:       993.68 cm**-1
  56:       999.07 cm**-1
  57:      1001.99 cm**-1
  58:      1012.74 cm**-1
  59:      1016.65 cm**-1
  60:      1040.70 cm**-1
  61:      1117.45 cm**-1
  62:      1130.79 cm**-1
  63:      1165.05 cm**-1
  64:      1182.39 cm**-1
  65:      1188.69 cm**-1
  66:      1198.46 cm**-1
  67:      1209.21 cm**-1
  68:      1227.69 cm**-1
  69:      1249.81 cm**-1
  70:      1265.07 cm**-1
  71:      1269.41 cm**-1
  72:      1278.05 cm**-1
  73:      1283.60 cm**-1
  74:      1331.07 cm**-1
  75:      1335.06 cm**-1
  76:      1343.31 cm**-1
  77:      1372.57 cm**-1
  78:      1378.58 cm**-1
  79:      1406.66 cm**-1
  80:      1410.63 cm**-1
  81:      1424.86 cm**-1
  82:      1441.87 cm**-1
  83:      1467.45 cm**-1
  84:      1504.13 cm**-1
  85:      1536.40 cm**-1
  86:      1546.64 cm**-1
  87:      1575.02 cm**-1
  88:      1622.15 cm**-1
  89:      1637.95 cm**-1
  90:      1656.62 cm**-1
  91:      1663.85 cm**-1
  92:      1675.59 cm**-1
  93:      1734.54 cm**-1
  94:      2336.80 cm**-1
  95:      3147.87 cm**-1
  96:      3171.16 cm**-1
  97:      3173.99 cm**-1
  98:      3174.56 cm**-1
  99:      3175.78 cm**-1
 100:      3179.09 cm**-1
 101:      3182.79 cm**-1
 102:      3191.68 cm**-1
 103:      3199.76 cm**-1
 104:      3200.74 cm**-1
 105:      3215.14 cm**-1
 106:      3222.14 cm**-1
 107:      3849.26 cm**-1

IR SPECTRUM
-----------

 Mode   freq       eps      Int      T**2         TX        TY        TZ
       cm**-1   L/(mol*cm) km/mol    a.u.
----------------------------------------------------------------------------
  7:     25.66   0.000062    0.31  0.000755  ( 0.006385 -0.016235  0.021230)
  8:     57.42   0.001192    6.02  0.006478  (-0.004368  0.038332  0.070637)
  9:     70.10   0.000236    1.19  0.001052  ( 0.014100  0.028505 -0.006348)
 10:     96.30   0.001811    9.15  0.005868  ( 0.027781  0.059173  0.039935)
 11:     99.60   0.000168    0.85  0.000528  (-0.003679  0.022154 -0.004831)
 12:    120.47   0.001089    5.51  0.002822  ( 0.013745 -0.033284 -0.039055)
 13:    147.24   0.001077    5.44  0.002283  (-0.003150 -0.029165 -0.037717)
 14:    200.81   0.001054    5.32  0.001637  ( 0.011901  0.036858  0.011717)
 15:    219.87   0.000292    1.48  0.000415  (-0.007652 -0.010262  0.015834)
 16:    221.08   0.001416    7.16  0.001999  ( 0.004304  0.007938  0.043784)
 17:    255.63   0.000185    0.93  0.000225  ( 0.008023  0.012681 -0.000231)
 18:    265.98   0.000130    0.65  0.000152  ( 0.001632  0.009985  0.007043)
 19:    289.66   0.002607   13.18  0.002809  (-0.012737 -0.027954 -0.043191)
 20:    313.67   0.001017    5.14  0.001012  ( 0.018713 -0.024719 -0.007130)
 21:    335.70   0.013179   66.60  0.012252  ( 0.033960  0.050950  0.092209)
 22:    355.31   0.000903    4.56  0.000793  (-0.009665  0.021651  0.015197)
 23:    378.84   0.003622   18.30  0.002983  (-0.011333 -0.022394 -0.048513)
 24:    420.18   0.001616    8.17  0.001200  (-0.019447  0.028647 -0.001092)
 25:    443.43   0.001472    7.44  0.001036  ( 0.021637 -0.022720  0.007185)
 26:    452.19   0.000193    0.97  0.000133  ( 0.009947 -0.004646  0.003521)
 27:    493.26   0.000583    2.95  0.000369  ( 0.000535  0.002393 -0.019048)
 28:    509.94   0.000552    2.79  0.000338  ( 0.009122 -0.015963  0.000276)
 29:    515.78   0.000227    1.15  0.000137  ( 0.006684  0.009371  0.002191)
 30:    527.45   0.000101    0.51  0.000060  ( 0.002635 -0.005794  0.004407)
 31:    532.80   0.001651    8.34  0.000967  ( 0.008271 -0.029784  0.003405)
 32:    562.17   0.000404    2.04  0.000225  ( 0.008495 -0.012016  0.002824)
 33:    565.97   0.000006    0.03  0.000003  (-0.000834  0.001540 -0.000480)
 34:    582.01   0.000194    0.98  0.000104  ( 0.004258 -0.000187 -0.009267)
 35:    620.79   0.003133   15.83  0.001575  (-0.017520  0.035543 -0.002123)
 36:    632.30   0.000585    2.96  0.000289  (-0.008992  0.014422 -0.000113)
 37:    678.14   0.000138    0.70  0.000063  (-0.005236  0.005654  0.001997)
 38:    702.61   0.000135    0.68  0.000060  (-0.004921  0.005971  0.000398)
 39:    719.09   0.000952    4.81  0.000413  ( 0.001341 -0.001599 -0.020222)
 40:    755.04   0.002723   13.76  0.001125  (-0.004776  0.006322  0.032596)
 41:    765.10   0.001046    5.28  0.000427  (-0.010906  0.013118 -0.011641)
 42:    783.32   0.000200    1.01  0.000080  ( 0.006459 -0.005553  0.002660)
 43:    815.60   0.008561   43.26  0.003276  ( 0.027491 -0.050012  0.004311)
 44:    817.39   0.001137    5.75  0.000434  (-0.008328  0.017847  0.006795)
 45:    832.40   0.002281   11.53  0.000855  ( 0.001767 -0.007938  0.028088)
 46:    852.31   0.000508    2.57  0.000186  (-0.007688  0.001657 -0.011136)
 47:    859.71   0.001532    7.74  0.000556  (-0.015043  0.018024  0.002196)
 48:    876.89   0.005999   30.32  0.002135  ( 0.007518 -0.006171  0.045169)
 49:    885.35   0.001159    5.86  0.000408  ( 0.013807 -0.013546 -0.005855)
 50:    890.26   0.005511   27.85  0.001932  ( 0.004297 -0.004679 -0.043492)
 51:    942.08   0.000707    3.57  0.000234  ( 0.003008 -0.002916  0.014718)
 52:    948.02   0.006935   35.05  0.002283  (-0.019628  0.001832 -0.043523)
 53:    985.22   0.003050   15.41  0.000966  (-0.001326  0.001966 -0.030990)
 54:    986.16   0.001521    7.68  0.000481  (-0.007554  0.018015  0.009977)
 55:    993.68   0.000059    0.30  0.000019  (-0.003509 -0.002499 -0.000058)
 56:    999.07   0.001138    5.75  0.000355  (-0.011704  0.014762  0.000698)
 57:   1001.99   0.001349    6.82  0.000420  ( 0.002033 -0.002475  0.020247)
 58:   1012.74   0.000040    0.20  0.000012  (-0.000245 -0.001745 -0.003026)
 59:   1016.65   0.000022    0.11  0.000007  (-0.001623  0.002054 -0.000063)
 60:   1040.70   0.000076    0.39  0.000023  (-0.004318 -0.002020  0.000399)
 61:   1117.45   0.001711    8.65  0.000478  ( 0.007544 -0.020333  0.002738)
 62:   1130.79   0.000125    0.63  0.000034  ( 0.004912 -0.003212 -0.000011)
 63:   1165.05   0.001530    7.73  0.000410  ( 0.001816  0.018755 -0.007408)
 64:   1182.39   0.000016    0.08  0.000004  (-0.001209  0.000704  0.001545)
 65:   1188.69   0.002518   12.73  0.000661  (-0.019906  0.016268 -0.000501)
 66:   1198.46   0.006403   32.36  0.001667  (-0.037576  0.015571 -0.003565)
 67:   1209.21   0.013882   70.15  0.003582  ( 0.049523 -0.033180  0.005391)
 68:   1227.69   0.073896  373.44  0.018784  ( 0.078886 -0.111139  0.014449)
 69:   1249.81   0.036572  184.82  0.009132  (-0.050791  0.080391 -0.009438)
 70:   1265.07   0.011404   57.63  0.002813  ( 0.025878 -0.046158  0.003599)
 71:   1269.41   0.001019    5.15  0.000251  (-0.001325 -0.015773 -0.000249)
 72:   1278.05   0.002759   13.94  0.000674  ( 0.018716 -0.017558  0.003879)
 73:   1283.60   0.015591   78.79  0.003790  ( 0.046667 -0.039810  0.005263)
 74:   1331.07   0.006103   30.84  0.001431  ( 0.018961 -0.032424  0.004480)
 75:   1335.06   0.005223   26.40  0.001221  ( 0.023133 -0.026169  0.001009)
 76:   1343.31   0.001265    6.40  0.000294  (-0.016735 -0.000640  0.003678)
 77:   1372.57   0.000035    0.18  0.000008  (-0.000909  0.002683 -0.000117)
 78:   1378.58   0.014229   71.91  0.003221  ( 0.044674 -0.034979  0.001287)
 79:   1406.66   0.000605    3.06  0.000134  ( 0.002844 -0.011215  0.000551)
 80:   1410.63   0.001609    8.13  0.000356  (-0.012827  0.013798  0.000991)
 81:   1424.86   0.001899    9.60  0.000416  ( 0.001441 -0.020190  0.002478)
 82:   1441.87   0.000898    4.54  0.000194  ( 0.008129 -0.011244  0.001368)
 83:   1467.45   0.001208    6.10  0.000257  ( 0.012995 -0.009380  0.000022)
 84:   1504.13   0.000498    2.52  0.000103  (-0.007638 -0.006702  0.000099)
 85:   1536.40   0.000723    3.65  0.000147  (-0.011963  0.001778 -0.000760)
 86:   1546.64   0.003656   18.47  0.000738  (-0.010783  0.024899 -0.001162)
 87:   1575.02   0.003746   18.93  0.000742  (-0.018179  0.020073 -0.002978)
 88:   1622.15   0.001318    6.66  0.000254  (-0.003589  0.015406 -0.001836)
 89:   1637.95   0.050717  256.30  0.009663  ( 0.054292 -0.081440  0.009092)
 90:   1656.62   0.009125   46.11  0.001719  (-0.003814  0.041252 -0.001630)
 91:   1663.85   0.019414   98.11  0.003641  (-0.034607  0.049181 -0.004986)
 92:   1675.59   0.000462    2.34  0.000086  (-0.002312 -0.008815  0.001738)
 93:   1734.54   0.076389  386.04  0.013743  (-0.059074  0.099369 -0.019473)
 94:   2336.80   0.028015  141.57  0.003741  ( 0.038406 -0.047424  0.004136)
 95:   3147.87   0.002178   11.01  0.000216  ( 0.013637  0.000110 -0.005474)
 96:   3171.16   0.000243    1.23  0.000024  ( 0.003745 -0.003108  0.000507)
 97:   3173.99   0.000135    0.68  0.000013  ( 0.002316  0.002812 -0.000155)
 98:   3174.56   0.002319   11.72  0.000228  (-0.015080  0.000097 -0.000732)
 99:   3175.78   0.003849   19.45  0.000378  ( 0.017863 -0.007630  0.000966)
100:   3179.09   0.000722    3.65  0.000071  (-0.007372 -0.004068  0.000095)
101:   3182.79   0.001670    8.44  0.000164  ( 0.006625 -0.010942  0.000323)
102:   3191.68   0.004164   21.04  0.000407  (-0.005474 -0.019411  0.000606)
103:   3199.76   0.002313   11.69  0.000226  (-0.005907 -0.013789  0.000720)
104:   3200.74   0.000248    1.25  0.000024  ( 0.003856 -0.003042  0.000285)
105:   3215.14   0.002108   10.65  0.000205  ( 0.014035 -0.002711  0.000513)
106:   3222.14   0.002698   13.63  0.000261  (-0.015201  0.005435 -0.000822)
107:   3849.26   0.057346  289.80  0.004649  ( 0.021543 -0.061133  0.021160)

--------------------------
THERMOCHEMISTRY AT 298.15K
--------------------------

Temperature         ... 298.15 K
Pressure            ... 1.00 atm
Total Mass          ... 295.34 AMU

Throughout the following assumptions are being made:
  (1) The electronic state is orbitally nondegenerate
  (2) There are no thermally accessible electronically excited states
  (3) Hindered rotations indicated by low frequency modes are not
      treated as such but are treated as vibrations and this may
      cause some error
  (4) All equations used are the standard statistical mechanics
      equations for an ideal gas
  (5) All vibrations are strictly harmonic

freq.      25.66  E(vib)   ...       0.56
freq.      57.42  E(vib)   ...       0.51
freq.      70.10  E(vib)   ...       0.50
freq.      96.30  E(vib)   ...       0.47
freq.      99.60  E(vib)   ...       0.46
freq.     120.47  E(vib)   ...       0.44
freq.     147.24  E(vib)   ...       0.41
freq.     200.81  E(vib)   ...       0.35
freq.     219.87  E(vib)   ...       0.33
freq.     221.08  E(vib)   ...       0.33
freq.     255.63  E(vib)   ...       0.30
freq.     265.98  E(vib)   ...       0.29
freq.     289.66  E(vib)   ...       0.27
freq.     313.67  E(vib)   ...       0.25
freq.     335.70  E(vib)   ...       0.24
freq.     355.31  E(vib)   ...       0.22
freq.     378.84  E(vib)   ...       0.21
freq.     420.18  E(vib)   ...       0.18
freq.     443.43  E(vib)   ...       0.17
freq.     452.19  E(vib)   ...       0.16
freq.     493.26  E(vib)   ...       0.14
freq.     509.94  E(vib)   ...       0.14
freq.     515.78  E(vib)   ...       0.13
freq.     527.45  E(vib)   ...       0.13
freq.     532.80  E(vib)   ...       0.13
freq.     562.17  E(vib)   ...       0.11
freq.     565.97  E(vib)   ...       0.11
freq.     582.01  E(vib)   ...       0.11
freq.     620.79  E(vib)   ...       0.09
freq.     632.30  E(vib)   ...       0.09
freq.     678.14  E(vib)   ...       0.08
freq.     702.61  E(vib)   ...       0.07
freq.     719.09  E(vib)   ...       0.07
freq.     755.04  E(vib)   ...       0.06
freq.     765.10  E(vib)   ...       0.06
freq.     783.32  E(vib)   ...       0.05
freq.     815.60  E(vib)   ...       0.05
freq.     817.39  E(vib)   ...       0.05
freq.     832.40  E(vib)   ...       0.04
freq.     852.31  E(vib)   ...       0.04
freq.     859.71  E(vib)   ...       0.04
freq.     876.89  E(vib)   ...       0.04
freq.     885.35  E(vib)   ...       0.04
freq.     890.26  E(vib)   ...       0.04
freq.     942.08  E(vib)   ...       0.03
freq.     948.02  E(vib)   ...       0.03
freq.     985.22  E(vib)   ...       0.02
freq.     986.16  E(vib)   ...       0.02
freq.     993.68  E(vib)   ...       0.02
freq.     999.07  E(vib)   ...       0.02
freq.    1001.99  E(vib)   ...       0.02
freq.    1012.74  E(vib)   ...       0.02
freq.    1016.65  E(vib)   ...       0.02
freq.    1040.70  E(vib)   ...       0.02
freq.    1117.45  E(vib)   ...       0.01
freq.    1130.79  E(vib)   ...       0.01
freq.    1165.05  E(vib)   ...       0.01
freq.    1182.39  E(vib)   ...       0.01
freq.    1188.69  E(vib)   ...       0.01
freq.    1198.46  E(vib)   ...       0.01
freq.    1209.21  E(vib)   ...       0.01
freq.    1227.69  E(vib)   ...       0.01
freq.    1249.81  E(vib)   ...       0.01
freq.    1265.07  E(vib)   ...       0.01
freq.    1269.41  E(vib)   ...       0.01
freq.    1278.05  E(vib)   ...       0.01
freq.    1283.60  E(vib)   ...       0.01
freq.    1331.07  E(vib)   ...       0.01
freq.    1335.06  E(vib)   ...       0.01
freq.    1343.31  E(vib)   ...       0.01
freq.    1372.57  E(vib)   ...       0.01
freq.    1378.58  E(vib)   ...       0.01
freq.    1406.66  E(vib)   ...       0.00
freq.    1410.63  E(vib)   ...       0.00
freq.    1424.86  E(vib)   ...       0.00
freq.    1441.87  E(vib)   ...       0.00
freq.    1467.45  E(vib)   ...       0.00
freq.    1504.13  E(vib)   ...       0.00
freq.    1536.40  E(vib)   ...       0.00
freq.    1546.64  E(vib)   ...       0.00
freq.    1575.02  E(vib)   ...       0.00
freq.    1622.15  E(vib)   ...       0.00
freq.    1637.95  E(vib)   ...       0.00
freq.    1656.62  E(vib)   ...       0.00
freq.    1663.85  E(vib)   ...       0.00
freq.    1675.59  E(vib)   ...       0.00
freq.    1734.54  E(vib)   ...       0.00
freq.    2336.80  E(vib)   ...       0.00
freq.    3147.87  E(vib)   ...       0.00
freq.    3171.16  E(vib)   ...       0.00
freq.    3173.99  E(vib)   ...       0.00
freq.    3174.56  E(vib)   ...       0.00
freq.    3175.78  E(vib)   ...       0.00
freq.    3179.09  E(vib)   ...       0.00
freq.    3182.79  E(vib)   ...       0.00
freq.    3191.68  E(vib)   ...       0.00
freq.    3199.76  E(vib)   ...       0.00
freq.    3200.74  E(vib)   ...       0.00
freq.    3215.14  E(vib)   ...       0.00
freq.    3222.14  E(vib)   ...       0.00
freq.    3849.26  E(vib)   ...       0.00

------------
INNER ENERGY
------------

The inner energy is: U= E(el) + E(ZPE) + E(vib) + E(rot) + E(trans)
    E(el)   - is the total energy from the electronic structure calculation
              = E(kin-el) + E(nuc-el) + E(el-el) + E(nuc-nuc)
    E(ZPE)  - the the zero temperature vibrational energy from the frequency calculation
    E(vib)  - the the finite temperature correction to E(ZPE) due to population
              of excited vibrational states
    E(rot)  - is the rotational thermal energy
    E(trans)- is the translational thermal energy

Summary of contributions to the inner energy U:
Electronic energy                ...   -936.78916006 Eh
Zero point energy                ...      0.27730426 Eh     174.01 kcal/mol
Thermal vibrational correction   ...      0.01431566 Eh       8.98 kcal/mol
Thermal rotational correction    ...      0.00141627 Eh       0.89 kcal/mol
Thermal translational correction ...      0.00141627 Eh       0.89 kcal/mol
-----------------------------------------------------------------------
Total thermal energy                   -936.49470760 Eh

Summary of corrections to the electronic energy:
(perhaps to be used in another calculation)
Total thermal correction                  0.01714820 Eh      10.76 kcal/mol
Non-thermal (ZPE) correction              0.27730426 Eh     174.01 kcal/mol
-----------------------------------------------------------------------
Total correction                          0.29445247 Eh     184.77 kcal/mol

--------
ENTHALPY
--------

The enthalpy is H = U + kB*T
                kB is Boltzmann's constant
Total free energy                 ...   -936.49470760 Eh
Thermal Enthalpy correction       ...      0.00094421 Eh       0.59 kcal/mol
-----------------------------------------------------------------------
Total Enthalpy                    ...   -936.49376339 Eh

Rotational constants in cm-1:     0.026102     0.003941     0.003429

                             ****ORCA TERMINATED NORMALLY****
TOTAL RUN TIME: 0 days 0 hours 47 minutes 2 seconds 693 msec
