                         Program Version 5.0.4 -  RELEASE  -
|  1> ! B3LYP def2-SVP Opt PAL8 FREQ defgrid3 slowconv VeryTightSCF
|  2> *xyz 0 1
|  3>   C      -7.213700      2.889523     -0.259660
|  4>   C      -5.954912      3.529019     -0.260046
|  5>   C      -4.771203      2.820892     -0.156225
|  6>   C      -4.778643      1.415570     -0.046693
|  7>   C      -3.566670      0.661531      0.056579
|  8>   C      -3.580291     -0.700100      0.159909
|  9>   C      -4.807362     -1.448826      0.171815
| 10>   C      -4.837974     -2.876678      0.276660
| 11>   C      -6.099441     -3.512820      0.281253
| 12>   C      -7.285491     -2.804115      0.186496
| 13>   C      -7.285935     -1.400269      0.079581
| 14>   C      -8.497139     -0.646161     -0.021058
| 15>   C      -8.487567      0.715450     -0.127985
| 16>   C      -7.258738      1.462080     -0.143821
| 17>   C      -6.028267      0.722389     -0.039105
| 18>   C      -6.036961     -0.709609      0.071500
| 19>   C      -8.439267      3.674003     -0.379905
| 20>   C      -3.601919     -3.653503      0.376177
| 21>   C      -8.542041      5.021736     -0.508908
| 22>   C      -3.495663     -4.995271      0.450242
| 23>   C      -9.800845      5.680457     -0.624709
| 24>   O      -2.284987     -5.596082      0.540461
| 25>   N     -10.819117      6.235375     -0.720805
| 26>   H      -5.905788      4.616127     -0.345192
| 27>   H      -3.814468      3.349775     -0.159947
| 28>   H      -2.615783      1.201261      0.050339
| 29>   H      -2.628169     -1.224053      0.235429
| 30>   H      -6.153814     -4.600165      0.364083
| 31>   H      -8.240344     -3.337193      0.194878
| 32>   H      -9.448469     -1.185617     -0.011381
| 33>   H      -9.442374      1.234870     -0.201706
| 34>   H      -9.382290      3.125661     -0.369241
| 35>   H      -2.649798     -3.121396      0.392260
| 36>   H      -7.665135      5.674734     -0.533753
| 37>   H      -4.362930     -5.665060      0.440485
| 38>   H      -2.394285     -6.553534      0.581991
| 39> *
| 40>
| 41>                          ****END OF INPUT****
 Total Charge           Charge          ....    0
 Multiplicity           Mult            ....    1
 Number of Electrons    NEL             ....  154
FINAL SINGLE POINT ENERGY      -936.788713690014
                    ***********************HURRAY********************

CARTESIAN COORDINATES (ANGSTROEM)
---------------------------------
  C     -7.212432    2.889435   -0.266583
  C     -5.953645    3.528889   -0.267061
  C     -4.769868    2.820514   -0.165230
  C     -4.777357    1.415127   -0.055953
  C     -3.565597    0.660884    0.049363
  C     -3.579675   -0.700609    0.154824
  C     -4.806876   -1.449098    0.166918
  C     -4.838069   -2.876521    0.276773
  C     -6.099591   -3.512431    0.280659
  C     -7.285271   -2.803960    0.180477
  C     -7.285298   -1.400419    0.070041
  C     -8.496231   -0.646231   -0.033392
  C     -8.486265    0.715318   -0.140553
  C     -7.257369    1.461788   -0.154739
  C     -6.027024    0.721977   -0.049598
  C     -6.036183   -0.709932    0.062608
  C     -8.438895    3.673839   -0.378057
  C     -3.602468   -3.653096    0.383625
  C     -8.543911    5.022298   -0.497290
  C     -3.496756   -4.994715    0.461400
  C     -9.804390    5.680357   -0.598908
  O     -2.286890   -5.595715    0.560485
  N    -10.823965    6.234831   -0.683325
  H     -5.904615    4.616222   -0.349191
  H     -3.813126    3.349429   -0.168197
  H     -2.614563    1.200385    0.043819
  H     -2.627750   -1.224809    0.231823
  H     -6.154316   -4.599389    0.367966
  H     -8.240219   -3.336890    0.188690
  H     -9.447682   -1.185492   -0.024658
  H     -9.440889    1.235018   -0.215362
  H     -9.381424    3.124618   -0.365289
  H     -2.650459   -3.120807    0.403885
  H     -7.667915    5.676572   -0.521479
  H     -4.364097   -5.664339    0.448376
  H     -2.396698   -6.553047    0.603131

 Multiplicity           Mult            ....    1
 Number of Electrons    NEL             ....  154
 Basis Dimension        Dim             ....  387

ORBITAL ENERGIES
----------------

  NO   OCC          E(Eh)            E(eV)
   0   2.0000     -19.182774      -521.9898
   1   2.0000     -14.313477      -389.4895
   2   2.0000     -10.261042      -279.2171
   3   2.0000     -10.223232      -278.1883
   4   2.0000     -10.221017      -278.1280
   5   2.0000     -10.215413      -277.9755
   6   2.0000     -10.214138      -277.9408
   7   2.0000     -10.213888      -277.9340
   8   2.0000     -10.211277      -277.8630
   9   2.0000     -10.207912      -277.7714
  10   2.0000     -10.207438      -277.7585
  11   2.0000     -10.207108      -277.7495
  12   2.0000     -10.206183      -277.7244
  13   2.0000     -10.202503      -277.6242
  14   2.0000     -10.201697      -277.6023
  15   2.0000     -10.200672      -277.5744
  16   2.0000     -10.200548      -277.5710
  17   2.0000     -10.200226      -277.5623
  18   2.0000     -10.199188      -277.5340
  19   2.0000     -10.198511      -277.5156
  20   2.0000     -10.198476      -277.5146
  21   2.0000     -10.198359      -277.5115
  22   2.0000     -10.190038      -277.2850
  23   2.0000      -1.066446       -29.0195
  24   2.0000      -0.893769       -24.3207
  25   2.0000      -0.883156       -24.0319
  26   2.0000      -0.858934       -23.3728
  27   2.0000      -0.833504       -22.6808
  28   2.0000      -0.820426       -22.3249
  29   2.0000      -0.791383       -21.5346
  30   2.0000      -0.782021       -21.2799
  31   2.0000      -0.753833       -20.5128
  32   2.0000      -0.744634       -20.2625
  33   2.0000      -0.730732       -19.8842
  34   2.0000      -0.710894       -19.3444
  35   2.0000      -0.657957       -17.9039
  36   2.0000      -0.641140       -17.4463
  37   2.0000      -0.635702       -17.2983
  38   2.0000      -0.620215       -16.8769
  39   2.0000      -0.600618       -16.3437
  40   2.0000      -0.582664       -15.8551
  41   2.0000      -0.568970       -15.4825
  42   2.0000      -0.547475       -14.8976
  43   2.0000      -0.534052       -14.5323
  44   2.0000      -0.526866       -14.3368
  45   2.0000      -0.512528       -13.9466
  46   2.0000      -0.505490       -13.7551
  47   2.0000      -0.496979       -13.5235
  48   2.0000      -0.474480       -12.9113
  49   2.0000      -0.458956       -12.4888
  50   2.0000      -0.451703       -12.2915
  51   2.0000      -0.449590       -12.2340
  52   2.0000      -0.433047       -11.7838
  53   2.0000      -0.426981       -11.6188
  54   2.0000      -0.424257       -11.5446
  55   2.0000      -0.417727       -11.3669
  56   2.0000      -0.412236       -11.2175
  57   2.0000      -0.405796       -11.0423
  58   2.0000      -0.402002       -10.9390
  59   2.0000      -0.398070       -10.8320
  60   2.0000      -0.385692       -10.4952
  61   2.0000      -0.385230       -10.4826
  62   2.0000      -0.376658       -10.2494
  63   2.0000      -0.365494        -9.9456
  64   2.0000      -0.358653        -9.7595
  65   2.0000      -0.353918        -9.6306
  66   2.0000      -0.347020        -9.4429
  67   2.0000      -0.341537        -9.2937
  68   2.0000      -0.328444        -8.9374
  69   2.0000      -0.327136        -8.9018
  70   2.0000      -0.321642        -8.7523
  71   2.0000      -0.297323        -8.0906
  72   2.0000      -0.281390        -7.6570
  73   2.0000      -0.266356        -7.2479
  74   2.0000      -0.243606        -6.6289
  75   2.0000      -0.236957        -6.4479
  76   2.0000      -0.194787        -5.3004
  77   0.0000      -0.089518        -2.4359
  78   0.0000      -0.049323        -1.3422
  79   0.0000      -0.040962        -1.1146
  80   0.0000      -0.017181        -0.4675
  81   0.0000       0.006725         0.1830

MULLIKEN ATOMIC CHARGES
-----------------------
   0 C :    0.060584
   1 C :   -0.022690
   2 C :   -0.030603
   3 C :    0.071069
   4 C :   -0.011985
   5 C :   -0.028873
   6 C :    0.055953
   7 C :    0.102674
   8 C :   -0.044971
   9 C :   -0.025948
  10 C :    0.061395
  11 C :   -0.006386
  12 C :   -0.043540
  13 C :    0.083965
  14 C :    0.055214
  15 C :    0.066216
  16 C :    0.023403
  17 C :   -0.021061
  18 C :   -0.123189
  19 C :    0.074868
  20 C :   -0.099346
  21 O :   -0.183503
  22 N :    0.034007
  23 H :   -0.026706
  24 H :   -0.030032
  25 H :   -0.031100
  26 H :   -0.030613
  27 H :   -0.040387
  28 H :   -0.031898
  29 H :   -0.029808
  30 H :   -0.030293
  31 H :    0.003027
  32 H :   -0.016274
  33 H :    0.034764
  34 H :   -0.003529
  35 H :    0.185597
Sum of atomic charges:    0.0000000

LOEWDIN ATOMIC CHARGES
----------------------
   0 C :   -0.037912
   1 C :   -0.005803
   2 C :   -0.021090
   3 C :   -0.007159
   4 C :   -0.019151
   5 C :   -0.007948
   6 C :   -0.017547
   7 C :   -0.003131
   8 C :   -0.026295
   9 C :   -0.011106
  10 C :   -0.025615
  11 C :   -0.006289
  12 C :   -0.026397
  13 C :    0.002034
  14 C :    0.001833
  15 C :    0.004812
  16 C :    0.032925
  17 C :   -0.089111
  18 C :   -0.076717
  19 C :    0.063563
  20 C :   -0.037426
  21 O :   -0.044237
  22 N :   -0.079732
  23 H :    0.027757
  24 H :    0.028655
  25 H :    0.028699
  26 H :    0.028361
  27 H :    0.021630
  28 H :    0.027999
  29 H :    0.029487
  30 H :    0.027271
  31 H :    0.035970
  32 H :    0.031099
  33 H :    0.043064
  34 H :    0.010685
  35 H :    0.096825

  Mayer bond orders larger than 0.100000
B(  0-C ,  1-C ) :   1.3061 B(  0-C , 13-C ) :   1.2483 B(  0-C , 16-C ) :   1.1244
B(  1-C ,  2-C ) :   1.4021 B(  1-C , 23-H ) :   0.9761 B(  2-C ,  3-C ) :   1.2660
B(  2-C , 24-H ) :   0.9879 B(  3-C ,  4-C ) :   1.1638 B(  3-C , 14-C ) :   1.2421
B(  4-C ,  5-C ) :   1.5355 B(  4-C , 25-H ) :   0.9843 B(  5-C ,  6-C ) :   1.1692
B(  5-C , 26-H ) :   0.9789 B(  6-C ,  7-C ) :   1.2619 B(  6-C , 15-C ) :   1.2337
B(  7-C ,  8-C ) :   1.3048 B(  7-C , 17-C ) :   1.1177 B(  8-C ,  9-C ) :   1.4035
B(  8-C , 27-H ) :   0.9759 B(  9-C , 10-C ) :   1.2701 B(  9-C , 28-H ) :   0.9860
B( 10-C , 11-C ) :   1.1622 B( 10-C , 15-C ) :   1.2451 B( 11-C , 12-C ) :   1.5387
B( 11-C , 29-H ) :   0.9831 B( 12-C , 13-C ) :   1.1695 B( 12-C , 30-H ) :   0.9781
B( 13-C , 14-C ) :   1.2349 B( 14-C , 15-C ) :   1.2275 B( 16-C , 18-C ) :   1.7389
B( 16-C , 31-H ) :   0.9602 B( 17-C , 19-C ) :   1.7146 B( 17-C , 32-H ) :   0.9545
B( 18-C , 20-C ) :   1.1095 B( 18-C , 33-H ) :   0.9436 B( 19-C , 21-O ) :   1.2104
B( 19-C , 34-H ) :   0.9535 B( 20-C , 22-N ) :   2.9618 B( 21-O , 35-H ) :   0.9640

FINAL SINGLE POINT ENERGY      -936.788718834278

DIPOLE MOMENT
-------------
                                X             Y             Z
Electronic contribution:     -3.68169       5.75538      -0.58744
Nuclear contribution   :      5.48878      -8.67228       0.86510
                        -----------------------------------------
Total Dipole Moment    :      1.80710      -2.91690       0.27767
                        -----------------------------------------
Magnitude (a.u.)       :      3.44253
Magnitude (Debye)      :      8.75020

VIBRATIONAL FREQUENCIES
-----------------------

Scaling factor for frequencies =  1.000000000  (already applied!)

   0:         0.00 cm**-1
   1:         0.00 cm**-1
   2:         0.00 cm**-1
   3:         0.00 cm**-1
   4:         0.00 cm**-1
   5:         0.00 cm**-1
   6:       -74.20 cm**-1 ***imaginary mode***
   7:       -46.09 cm**-1 ***imaginary mode***
   8:        26.48 cm**-1
   9:        65.39 cm**-1
  10:        71.95 cm**-1
  11:        99.64 cm**-1
  12:       121.08 cm**-1
  13:       142.39 cm**-1
  14:       193.29 cm**-1
  15:       220.57 cm**-1
  16:       221.13 cm**-1
  17:       255.32 cm**-1
  18:       260.95 cm**-1
  19:       285.65 cm**-1
  20:       316.30 cm**-1
  21:       332.17 cm**-1
  22:       352.55 cm**-1
  23:       377.87 cm**-1
  24:       420.97 cm**-1
  25:       442.56 cm**-1
  26:       449.83 cm**-1
  27:       493.72 cm**-1
  28:       510.25 cm**-1
  29:       514.58 cm**-1
  30:       526.06 cm**-1
  31:       531.42 cm**-1
  32:       562.83 cm**-1
  33:       564.62 cm**-1
  34:       583.24 cm**-1
  35:       621.83 cm**-1
  36:       633.42 cm**-1
  37:       679.57 cm**-1
  38:       703.03 cm**-1
  39:       718.77 cm**-1
  40:       755.16 cm**-1
  41:       764.73 cm**-1
  42:       784.32 cm**-1
  43:       815.61 cm**-1
  44:       816.30 cm**-1
  45:       832.46 cm**-1
  46:       853.96 cm**-1
  47:       858.69 cm**-1
  48:       875.96 cm**-1
  49:       886.16 cm**-1
  50:       894.64 cm**-1
  51:       944.83 cm**-1
  52:       947.77 cm**-1
  53:       984.62 cm**-1
  54:       984.97 cm**-1
  55:       990.68 cm**-1
  56:       999.84 cm**-1
  57:      1001.72 cm**-1
  58:      1012.06 cm**-1
  59:      1017.64 cm**-1
  60:      1040.36 cm**-1
  61:      1116.59 cm**-1
  62:      1131.45 cm**-1
  63:      1167.96 cm**-1
  64:      1184.53 cm**-1
  65:      1195.58 cm**-1
  66:      1204.14 cm**-1
  67:      1209.58 cm**-1
  68:      1231.69 cm**-1
  69:      1250.53 cm**-1
  70:      1265.69 cm**-1
  71:      1269.80 cm**-1
  72:      1282.05 cm**-1
  73:      1283.93 cm**-1
  74:      1331.78 cm**-1
  75:      1335.48 cm**-1
  76:      1351.35 cm**-1
  77:      1373.73 cm**-1
  78:      1385.06 cm**-1
  79:      1406.41 cm**-1
  80:      1412.10 cm**-1
  81:      1425.16 cm**-1
  82:      1443.75 cm**-1
  83:      1469.01 cm**-1
  84:      1505.63 cm**-1
  85:      1537.08 cm**-1
  86:      1547.77 cm**-1
  87:      1575.87 cm**-1
  88:      1622.51 cm**-1
  89:      1637.91 cm**-1
  90:      1657.76 cm**-1
  91:      1663.80 cm**-1
  92:      1674.93 cm**-1
  93:      1733.74 cm**-1
  94:      2336.54 cm**-1
  95:      3154.87 cm**-1
  96:      3171.40 cm**-1
  97:      3174.21 cm**-1
  98:      3174.55 cm**-1
  99:      3176.11 cm**-1
 100:      3179.25 cm**-1
 101:      3193.92 cm**-1
 102:      3199.83 cm**-1
 103:      3200.07 cm**-1
 104:      3200.68 cm**-1
 105:      3222.26 cm**-1
 106:      3223.69 cm**-1
 107:      3849.90 cm**-1

IR SPECTRUM
-----------

 Mode   freq       eps      Int      T**2         TX        TY        TZ
       cm**-1   L/(mol*cm) km/mol    a.u.
----------------------------------------------------------------------------
  8:     26.48   0.000175    0.88  0.002062  (-0.002234  0.003455  0.045228)
  9:     65.39   0.000051    0.26  0.000242  (-0.000119  0.002475  0.015343)
 10:     71.95   0.000400    2.02  0.001737  ( 0.017674  0.037657 -0.002519)
 11:     99.64   0.000395    2.00  0.001238  (-0.002710  0.002008  0.035020)
 12:    121.08   0.000447    2.26  0.001153  (-0.030230 -0.015434 -0.000973)
 13:    142.39   0.000295    1.49  0.000646  ( 0.001956 -0.001113 -0.025308)
 14:    193.29   0.000044    0.22  0.000072  ( 0.001226  0.001366 -0.008264)
 15:    220.57   0.001424    7.20  0.002015  ( 0.001787 -0.003677 -0.044706)
 16:    221.13   0.000241    1.22  0.000340  ( 0.008253  0.016430 -0.001426)
 17:    255.32   0.000192    0.97  0.000235  (-0.008551 -0.012683  0.000730)
 18:    260.95   0.000060    0.30  0.000072  ( 0.000903 -0.000224 -0.008429)
 19:    285.65   0.002291   11.58  0.002502  (-0.003000  0.002834  0.049853)
 20:    316.30   0.000818    4.13  0.000807  (-0.019409  0.020454 -0.003466)
 21:    332.17   0.015053   76.07  0.014142  ( 0.007000 -0.006579 -0.118532)
 22:    352.55   0.000561    2.83  0.000496  (-0.017124  0.013875 -0.003243)
 23:    377.87   0.003560   17.99  0.002940  (-0.003004  0.003596  0.054020)
 24:    420.97   0.001806    9.13  0.001339  ( 0.020936 -0.029831  0.003235)
 25:    442.56   0.001533    7.75  0.001081  ( 0.022251 -0.024094  0.002286)
 26:    449.83   0.000037    0.19  0.000026  ( 0.000940 -0.001034 -0.004877)
 27:    493.72   0.000514    2.60  0.000325  ( 0.000688 -0.001692 -0.017926)
 28:    510.25   0.000651    3.29  0.000398  ( 0.009418 -0.017486  0.001927)
 29:    514.58   0.000120    0.61  0.000073  ( 0.006398  0.005637 -0.000470)
 30:    526.06   0.000017    0.08  0.000010  (-0.000023 -0.000024 -0.003154)
 31:    531.42   0.001790    9.05  0.001051  ( 0.007773 -0.031372  0.002578)
 32:    562.83   0.000464    2.35  0.000257  (-0.009401  0.012946 -0.001157)
 33:    564.62   0.000000    0.00  0.000000  (-0.000010 -0.000037  0.000162)
 34:    583.24   0.000153    0.77  0.000082  (-0.000268  0.000964  0.008978)
 35:    621.83   0.003375   17.06  0.001694  ( 0.018303 -0.036695  0.003483)
 36:    633.42   0.001150    5.81  0.000566  (-0.012595  0.020072 -0.002213)
 37:    679.57   0.000019    0.10  0.000009  (-0.000512  0.000196 -0.002898)
 38:    703.03   0.000233    1.17  0.000103  ( 0.006030 -0.008128  0.000881)
 39:    718.77   0.000973    4.92  0.000423  (-0.000726  0.001475  0.020493)
 40:    755.16   0.002826   14.28  0.001168  ( 0.000934 -0.002248 -0.034086)
 41:    764.73   0.000974    4.92  0.000398  (-0.012256  0.015701 -0.000914)
 42:    784.32   0.000290    1.47  0.000115  (-0.007413  0.007731 -0.000792)
 43:    815.61   0.000057    0.29  0.000022  ( 0.001220 -0.002087 -0.003996)
 44:    816.30   0.010493   53.03  0.004011  ( 0.030028 -0.055462  0.005791)
 45:    832.46   0.002556   12.92  0.000958  ( 0.001354 -0.002975 -0.030780)
 46:    853.96   0.000021    0.11  0.000008  (-0.001039  0.000811  0.002457)
 47:    858.69   0.002700   13.64  0.000981  ( 0.022020 -0.022128  0.002590)
 48:    875.96   0.007360   37.19  0.002622  ( 0.002194 -0.004288 -0.050977)
 49:    886.16   0.001423    7.19  0.000501  (-0.001385  0.002775  0.022171)
 50:    894.64   0.001767    8.93  0.000616  (-0.000173  0.001140  0.024800)
 51:    944.83   0.000056    0.28  0.000019  (-0.000361  0.000128  0.004292)
 52:    947.77   0.006914   34.94  0.002276  (-0.003174  0.004184  0.047422)
 53:    984.62   0.001613    8.15  0.000511  (-0.008511  0.019418  0.007865)
 54:    984.97   0.003186   16.10  0.001009  (-0.001150  0.003016 -0.031604)
 55:    990.68   0.000043    0.22  0.000013  ( 0.000113  0.000525  0.003633)
 56:    999.84   0.001169    5.91  0.000365  ( 0.011504 -0.015155  0.001704)
 57:   1001.72   0.001200    6.06  0.000374  ( 0.000732 -0.001785 -0.019239)
 58:   1012.06   0.000052    0.27  0.000016  (-0.000211  0.000301  0.004006)
 59:   1017.64   0.000001    0.01  0.000000  ( 0.000160 -0.000101  0.000621)
 60:   1040.36   0.000089    0.45  0.000027  (-0.004666 -0.002228 -0.000001)
 61:   1116.59   0.001693    8.56  0.000473  (-0.007901  0.020194 -0.001737)
 62:   1131.45   0.000139    0.70  0.000038  ( 0.005776 -0.002226  0.000397)
 63:   1167.96   0.002264   11.44  0.000605  (-0.002171  0.024450 -0.001543)
 64:   1184.53   0.000401    2.03  0.000106  (-0.005622  0.008572 -0.000819)
 65:   1195.58   0.000213    1.08  0.000056  ( 0.005741 -0.004746  0.000375)
 66:   1204.14   0.005891   29.77  0.001527  (-0.036640  0.013364 -0.002352)
 67:   1209.58   0.016225   82.00  0.004186  ( 0.055345 -0.033192  0.004606)
 68:   1231.69   0.079734  402.94  0.020202  ( 0.085233 -0.113139  0.011680)
 69:   1250.53   0.051062  258.04  0.012742  ( 0.062880 -0.093263  0.009500)
 70:   1265.69   0.008871   44.83  0.002187  (-0.020623  0.041769 -0.004158)
 71:   1269.80   0.001285    6.49  0.000316  (-0.001704  0.017617 -0.001603)
 72:   1282.05   0.002264   11.44  0.000551  ( 0.017623 -0.015385  0.001945)
 73:   1283.93   0.011853   59.90  0.002881  (-0.041183  0.034179 -0.004088)
 74:   1331.78   0.009824   49.65  0.002302  ( 0.026581 -0.039745  0.003967)
 75:   1335.48   0.002518   12.72  0.000588  ( 0.014919 -0.019022  0.001978)
 76:   1351.35   0.000799    4.04  0.000184  (-0.008967 -0.010200  0.000098)
 77:   1373.73   0.000046    0.23  0.000010  (-0.002575  0.001930 -0.000181)
 78:   1385.06   0.014176   71.64  0.003194  (-0.046057  0.032442 -0.004497)
 79:   1406.41   0.001077    5.44  0.000239  (-0.006956  0.013736 -0.001340)
 80:   1412.10   0.004338   21.92  0.000959  ( 0.020419 -0.023113  0.002735)
 81:   1425.16   0.001261    6.37  0.000276  (-0.003223 -0.016266  0.001072)
 82:   1443.75   0.000628    3.17  0.000136  (-0.005240  0.010367 -0.000927)
 83:   1469.01   0.001341    6.78  0.000285  (-0.014056  0.009255 -0.001302)
 84:   1505.63   0.000563    2.84  0.000117  ( 0.007830  0.007433 -0.000281)
 85:   1537.08   0.000551    2.78  0.000112  ( 0.010535  0.000852  0.000263)
 86:   1547.77   0.004656   23.53  0.000939  ( 0.013263 -0.027485  0.002713)
 87:   1575.87   0.003924   19.83  0.000777  ( 0.018629 -0.020614  0.002246)
 88:   1622.51   0.001079    5.45  0.000208  ( 0.002951 -0.014054  0.001155)
 89:   1637.91   0.062636  316.54  0.011934  (-0.059002  0.091466 -0.009306)
 90:   1657.76   0.006484   32.77  0.001221  ( 0.000242 -0.034805  0.003017)
 91:   1663.80   0.020580  104.00  0.003860  ( 0.035260 -0.050869  0.005393)
 92:   1674.93   0.000769    3.89  0.000143  (-0.001629 -0.011837  0.000703)
 93:   1733.74   0.083813  423.56  0.015086  (-0.061934  0.105613 -0.009801)
 94:   2336.54   0.028886  145.98  0.003858  ( 0.039009 -0.048036  0.005372)
 95:   3154.87   0.002180   11.02  0.000216  ( 0.014563  0.001725  0.000795)
 96:   3171.40   0.000137    0.69  0.000013  (-0.001700  0.003244 -0.000270)
 97:   3174.21   0.000204    1.03  0.000020  ( 0.000678  0.004409 -0.000338)
 98:   3174.55   0.002514   12.71  0.000247  ( 0.015678 -0.000989  0.000602)
 99:   3176.11   0.003152   15.93  0.000310  ( 0.016512 -0.005981  0.001120)
100:   3179.25   0.000817    4.13  0.000080  (-0.007225 -0.005290  0.000126)
101:   3193.92   0.004836   24.44  0.000473  ( 0.006588  0.020671 -0.001357)
102:   3199.83   0.001552    7.84  0.000151  (-0.007032 -0.010084  0.000504)
103:   3200.07   0.002193   11.08  0.000214  (-0.003437  0.014158 -0.001242)
104:   3200.68   0.000203    1.03  0.000020  ( 0.004080 -0.001752  0.000303)
105:   3222.26   0.002946   14.89  0.000285  ( 0.015885 -0.005651  0.001038)
106:   3223.69   0.002666   13.48  0.000258  (-0.015360  0.004609 -0.000975)
107:   3849.90   0.063985  323.35  0.005186  (-0.022790  0.068125 -0.005100)

--------------------------
THERMOCHEMISTRY AT 298.15K
--------------------------

Temperature         ... 298.15 K
Pressure            ... 1.00 atm
Total Mass          ... 295.34 AMU

Throughout the following assumptions are being made:
  (1) The electronic state is orbitally nondegenerate
  (2) There are no thermally accessible electronically excited states
  (3) Hindered rotations indicated by low frequency modes are not
      treated as such but are treated as vibrations and this may
      cause some error
  (4) All equations used are the standard statistical mechanics
      equations for an ideal gas
  (5) All vibrations are strictly harmonic

freq.      26.48  E(vib)   ...       0.56
freq.      65.39  E(vib)   ...       0.50
freq.      71.95  E(vib)   ...       0.50
freq.      99.64  E(vib)   ...       0.46
freq.     121.08  E(vib)   ...       0.44
freq.     142.39  E(vib)   ...       0.41
freq.     193.29  E(vib)   ...       0.36
freq.     220.57  E(vib)   ...       0.33
freq.     221.13  E(vib)   ...       0.33
freq.     255.32  E(vib)   ...       0.30
freq.     260.95  E(vib)   ...       0.30
freq.     285.65  E(vib)   ...       0.28
freq.     316.30  E(vib)   ...       0.25
freq.     332.17  E(vib)   ...       0.24
freq.     352.55  E(vib)   ...       0.22
freq.     377.87  E(vib)   ...       0.21
freq.     420.97  E(vib)   ...       0.18
freq.     442.56  E(vib)   ...       0.17
freq.     449.83  E(vib)   ...       0.17
freq.     493.72  E(vib)   ...       0.14
freq.     510.25  E(vib)   ...       0.14
freq.     514.58  E(vib)   ...       0.13
freq.     526.06  E(vib)   ...       0.13
freq.     531.42  E(vib)   ...       0.13
freq.     562.83  E(vib)   ...       0.11
freq.     564.62  E(vib)   ...       0.11
freq.     583.24  E(vib)   ...       0.11
freq.     621.83  E(vib)   ...       0.09
freq.     633.42  E(vib)   ...       0.09
freq.     679.57  E(vib)   ...       0.08
freq.     703.03  E(vib)   ...       0.07
freq.     718.77  E(vib)   ...       0.07
freq.     755.16  E(vib)   ...       0.06
freq.     764.73  E(vib)   ...       0.06
freq.     784.32  E(vib)   ...       0.05
freq.     815.61  E(vib)   ...       0.05
freq.     816.30  E(vib)   ...       0.05
freq.     832.46  E(vib)   ...       0.04
freq.     853.96  E(vib)   ...       0.04
freq.     858.69  E(vib)   ...       0.04
freq.     875.96  E(vib)   ...       0.04
freq.     886.16  E(vib)   ...       0.04
freq.     894.64  E(vib)   ...       0.03
freq.     944.83  E(vib)   ...       0.03
freq.     947.77  E(vib)   ...       0.03
freq.     984.62  E(vib)   ...       0.02
freq.     984.97  E(vib)   ...       0.02
freq.     990.68  E(vib)   ...       0.02
freq.     999.84  E(vib)   ...       0.02
freq.    1001.72  E(vib)   ...       0.02
freq.    1012.06  E(vib)   ...       0.02
freq.    1017.64  E(vib)   ...       0.02
freq.    1040.36  E(vib)   ...       0.02
freq.    1116.59  E(vib)   ...       0.01
freq.    1131.45  E(vib)   ...       0.01
freq.    1167.96  E(vib)   ...       0.01
freq.    1184.53  E(vib)   ...       0.01
freq.    1195.58  E(vib)   ...       0.01
freq.    1204.14  E(vib)   ...       0.01
freq.    1209.58  E(vib)   ...       0.01
freq.    1231.69  E(vib)   ...       0.01
freq.    1250.53  E(vib)   ...       0.01
freq.    1265.69  E(vib)   ...       0.01
freq.    1269.80  E(vib)   ...       0.01
freq.    1282.05  E(vib)   ...       0.01
freq.    1283.93  E(vib)   ...       0.01
freq.    1331.78  E(vib)   ...       0.01
freq.    1335.48  E(vib)   ...       0.01
freq.    1351.35  E(vib)   ...       0.01
freq.    1373.73  E(vib)   ...       0.01
freq.    1385.06  E(vib)   ...       0.00
freq.    1406.41  E(vib)   ...       0.00
freq.    1412.10  E(vib)   ...       0.00
freq.    1425.16  E(vib)   ...       0.00
freq.    1443.75  E(vib)   ...       0.00
freq.    1469.01  E(vib)   ...       0.00
freq.    1505.63  E(vib)   ...       0.00
freq.    1537.08  E(vib)   ...       0.00
freq.    1547.77  E(vib)   ...       0.00
freq.    1575.87  E(vib)   ...       0.00
freq.    1622.51  E(vib)   ...       0.00
freq.    1637.91  E(vib)   ...       0.00
freq.    1657.76  E(vib)   ...       0.00
freq.    1663.80  E(vib)   ...       0.00
freq.    1674.93  E(vib)   ...       0.00
freq.    1733.74  E(vib)   ...       0.00
freq.    2336.54  E(vib)   ...       0.00
freq.    3154.87  E(vib)   ...       0.00
freq.    3171.40  E(vib)   ...       0.00
freq.    3174.21  E(vib)   ...       0.00
freq.    3174.55  E(vib)   ...       0.00
freq.    3176.11  E(vib)   ...       0.00
freq.    3179.25  E(vib)   ...       0.00
freq.    3193.92  E(vib)   ...       0.00
freq.    3199.83  E(vib)   ...       0.00
freq.    3200.07  E(vib)   ...       0.00
freq.    3200.68  E(vib)   ...       0.00
freq.    3222.26  E(vib)   ...       0.00
freq.    3223.69  E(vib)   ...       0.00
freq.    3849.90  E(vib)   ...       0.00

------------
INNER ENERGY
------------

The inner energy is: U= E(el) + E(ZPE) + E(vib) + E(rot) + E(trans)
    E(el)   - is the total energy from the electronic structure calculation
              = E(kin-el) + E(nuc-el) + E(el-el) + E(nuc-nuc)
    E(ZPE)  - the the zero temperature vibrational energy from the frequency calculation
    E(vib)  - the the finite temperature correction to E(ZPE) due to population
              of excited vibrational states
    E(rot)  - is the rotational thermal energy
    E(trans)- is the translational thermal energy

Summary of contributions to the inner energy U:
Electronic energy                ...   -936.78871883 Eh
Zero point energy                ...      0.27726109 Eh     173.98 kcal/mol
Thermal vibrational correction   ...      0.01358616 Eh       8.53 kcal/mol
Thermal rotational correction    ...      0.00141627 Eh       0.89 kcal/mol
Thermal translational correction ...      0.00141627 Eh       0.89 kcal/mol
-----------------------------------------------------------------------
Total thermal energy                   -936.49503904 Eh

Summary of corrections to the electronic energy:
(perhaps to be used in another calculation)
Total thermal correction                  0.01641871 Eh      10.30 kcal/mol
Non-thermal (ZPE) correction              0.27726109 Eh     173.98 kcal/mol
-----------------------------------------------------------------------
Total correction                          0.29367980 Eh     184.29 kcal/mol

--------
ENTHALPY
--------

The enthalpy is H = U + kB*T
                kB is Boltzmann's constant
Total free energy                 ...   -936.49503904 Eh
Thermal Enthalpy correction       ...      0.00094421 Eh       0.59 kcal/mol
-----------------------------------------------------------------------
Total Enthalpy                    ...   -936.49409483 Eh

Rotational constants in cm-1:     0.026212     0.003928     0.003416

                             ****ORCA TERMINATED NORMALLY****
TOTAL RUN TIME: 0 days 0 hours 30 minutes 35 seconds 924 msec
