 Gaussian 16, Revision C.01,
 Gaussian 16:  ES64L-G16RevC.01  3-Jul-2019

 --------------------------
 #P mp2/cc-pvdz polar=Cubic
 --------------------------

 -
 p
 -
 Symbolic Z-matrix:
 Charge =  0 Multiplicity = 1

                         Standard orientation:
 ---------------------------------------------------------------------
 Center     Atomic      Atomic             Coordinates (Angstroms)
 Number     Number       Type             X           Y           Z
 ---------------------------------------------------------------------
      1          6           0        2.461705    0.513118    0.002577
      2          6           0        2.378305    1.923822    0.002426
      3          6           0        1.164199    2.585126   -0.013682
      4          6           0       -0.049165    1.865400   -0.033125
      5          6           0       -1.317940    2.528041   -0.041274
      6          6           0       -2.488825    1.824073   -0.061819
      7          6           0       -2.507552    0.387792   -0.084252
      8          6           0       -3.725860   -0.359968   -0.113606
      9          6           0       -3.642896   -1.768750   -0.118176
     10          6           0       -2.426884   -2.435348   -0.078147
     11          6           0       -1.211828   -1.725743   -0.052868
     12          6           0        0.057315   -2.387142   -0.031306
     13          6           0        1.230536   -1.687971   -0.015022
     14          6           0        1.250293   -0.250301   -0.016613
     15          6           0       -0.013547    0.436283   -0.037476
     16          6           0       -1.246342   -0.298229   -0.060165
     17          6           0        3.758598   -0.147802    0.022868
     18          6           0       -5.028304    0.310793   -0.153434
     19          6           0        4.973866    0.433832    0.039983
     20          6           0       -6.187367   -0.219414    0.283340
     21          8           0       -7.359228    0.448735    0.170482
     22          7           0        6.176336   -0.382744    0.059966
     23          8           0        7.236997    0.232022    0.075078
     24          8           0        6.077045   -1.603722    0.061154
     25          1           0        3.296996    2.513349    0.017085
     26          1           0        1.135353    3.677866   -0.010592
     27          1           0       -1.334608    3.621164   -0.025122
     28          1           0       -3.432276    2.370253   -0.051559
     29          1           0       -4.561961   -2.354640   -0.188972
     30          1           0       -2.404335   -3.528685   -0.089205
     31          1           0        0.074840   -3.480634   -0.028455
     32          1           0        2.167650   -2.243503    0.000715
     33          1           0        3.793210   -1.238394    0.025055
     34          1           0       -5.089705    1.322827   -0.561134
     35          1           0        5.212520    1.495142    0.041407
     36          1           0       -6.234868   -1.206883    0.758381
     37          1           0       -8.065519   -0.050607    0.597556
 ---------------------------------------------------------------------

 SCF Done:  E(RHF) =  -1043.92656992     A.U. after   18 cycles
 E2 =    -0.3321205962D+01 EUMP2 =    -0.10472477758841D+04
 E2 =    -0.3321205962D+01 EUMP2 =    -0.10472477758841D+04
 SCF Done:  E(RHF) =  -1043.92783408     A.U. after   11 cycles
 E2 =    -0.3320899322D+01 EUMP2 =    -0.10472487334022D+04
 E2 =    -0.3320899322D+01 EUMP2 =    -0.10472487334022D+04
 SCF Done:  E(RHF) =  -1043.92536453     A.U. after   11 cycles
 E2 =    -0.3321510906D+01 EUMP2 =    -0.10472468754330D+04
 E2 =    -0.3321510906D+01 EUMP2 =    -0.10472468754330D+04
 SCF Done:  E(RHF) =  -1043.92653965     A.U. after   11 cycles
 E2 =    -0.3321194333D+01 EUMP2 =    -0.10472477339826D+04
 E2 =    -0.3321194333D+01 EUMP2 =    -0.10472477339826D+04
 SCF Done:  E(RHF) =  -1043.92662784     A.U. after   11 cycles
 E2 =    -0.3321218304D+01 EUMP2 =    -0.10472478461441D+04
 E2 =    -0.3321218304D+01 EUMP2 =    -0.10472478461441D+04
 SCF Done:  E(RHF) =  -1043.92645220     A.U. after    9 cycles
 E2 =    -0.3321211832D+01 EUMP2 =    -0.10472476640324D+04
 E2 =    -0.3321211832D+01 EUMP2 =    -0.10472476640324D+04
 SCF Done:  E(RHF) =  -1043.92669650     A.U. after    9 cycles
 E2 =    -0.3321199931D+01 EUMP2 =    -0.10472478964265D+04
 E2 =    -0.3321199931D+01 EUMP2 =    -0.10472478964265D+04

 Alpha  occ. eigenvalues --  -20.60924 -20.58404 -20.58056 -15.83488 -11.32496
 Alpha  occ. eigenvalues --  -11.29544 -11.29377 -11.28182 -11.27606 -11.27357
 Alpha  occ. eigenvalues --  -11.27281 -11.26864 -11.26826 -11.26771 -11.26571
 Alpha  occ. eigenvalues --  -11.26441 -11.26291 -11.26237 -11.26066 -11.25764
 Alpha  occ. eigenvalues --  -11.25733 -11.25702 -11.25565 -11.24336  -1.59107
 Alpha  occ. eigenvalues --   -1.42372  -1.38322  -1.21550  -1.17316  -1.14158
 Alpha  occ. eigenvalues --   -1.13241  -1.09912  -1.07377  -1.04476  -1.03264
 Alpha  occ. eigenvalues --   -1.00950  -0.99007  -0.94397  -0.88126  -0.87548
 Alpha  occ. eigenvalues --   -0.86245  -0.84551  -0.80512  -0.79973  -0.76203
 Alpha  occ. eigenvalues --   -0.75982  -0.74329  -0.72699  -0.71706  -0.70692
 Alpha  occ. eigenvalues --   -0.70142  -0.70140  -0.68021  -0.65879  -0.64318
 Alpha  occ. eigenvalues --   -0.63109  -0.62283  -0.60883  -0.60200  -0.59372
 Alpha  occ. eigenvalues --   -0.58593  -0.57629  -0.57389  -0.56810  -0.56663
 Alpha  occ. eigenvalues --   -0.54437  -0.54174  -0.52103  -0.51460  -0.49271
 Alpha  occ. eigenvalues --   -0.48194  -0.47910  -0.47595  -0.47133  -0.45354
 Alpha  occ. eigenvalues --   -0.43415  -0.40653  -0.39042  -0.35781  -0.33458
 Alpha  occ. eigenvalues --   -0.31186  -0.25810
 Alpha virt. eigenvalues --    0.01440   0.06868   0.08116   0.11640   0.13512
 Alpha virt. eigenvalues --    0.15619   0.17271   0.17725   0.17951   0.18872
 Alpha virt. eigenvalues --    0.19079   0.19858   0.21049   0.21442   0.24106

 Mulliken charges:
               1
     1  C   -0.040414
     2  C   -0.005394
     3  C    0.058244
     4  C   -0.078745
     5  C    0.063922
     6  C   -0.001964
     7  C   -0.033407
     8  C   -0.046408
     9  C    0.012355
    10  C    0.030088
    11  C   -0.057045
    12  C    0.050947
    13  C    0.000628
    14  C   -0.037766
    15  C    0.012657
    16  C   -0.005991
    17  C    0.004624
    18  C   -0.068483
    19  C    0.107147
    20  C    0.107843
    21  O   -0.196411
    22  N    0.183682
    23  O   -0.228289
    24  O   -0.231110
    25  H    0.011458
    26  H    0.009504
    27  H    0.006377
    28  H    0.015258
    29  H    0.005554
    30  H    0.004241
    31  H    0.005384
    32  H    0.021065
    33  H    0.048655
    34  H    0.032706
    35  H    0.043163
    36  H    0.025196
    37  H    0.170730
 Sum of Mulliken charges =  -0.00000

 Dipole moment (field-independent basis, Debye):
    X=             -7.0860    Y=              0.4262    Z=              0.9516  Tot=              7.1623
 Quadrupole moment (field-independent basis, Debye-Ang):
   XX=           -143.3953   YY=           -125.4579   ZZ=           -143.6925
   XY=             18.8264   XZ=             -8.3515   YZ=             -1.0280

  Exact polarizability:     513.589      23.137     255.284      -2.898      -2.353      78.284
 Approx polarizability:     390.242      33.910     270.359      -1.334      -2.528     100.881

 1\1\GINC-N0104\SP\RMP2-FC\CC-pVDZ\C20H13N1O3\KA_PR7831\16-Aug-2025\0\\
 #P mp2/cc-pvdz polar=Cubic\\p\\0,1\C,0,-7.1055123,2.7391098,-0.2629619
 \C,0,-5.8431997,3.3744014,-0.2665907\C,0,-4.6647227,2.6613301,-0.14676
 97\C,0,-4.6816976,1.2569217,-0.012659\C,0,-3.4744328,0.4967771,0.10413
 58\C,0,-3.4990491,-0.8630498,0.2354017\C,0,-4.7333038,-1.5972915,0.270
 9006\C,0,-4.7724422,-3.0192012,0.4155496\C,0,-6.0330537,-3.6535192,0.4
 239043\C,0,-7.2161516,-2.9434143,0.2801311\C,0,-7.208557,-1.5430993,0.
 1401379\C,0,-8.4144196,-0.7831108,0.0099413\C,0,-8.3952845,0.5766718,-

 Normal termination of Gaussian 16 at Sat Aug 16 08:26:12 2025.
