                         Program Version 5.0.4 -  RELEASE  -
|  1> ! B3LYP def2-SVP Opt PAL8 FREQ defgrid3 slowconv VeryTightSCF
|  2> *xyz 0 1
|  3>   C      -7.121715      2.887296     -0.261826
|  4>   C      -5.863942      3.531765     -0.263353
|  5>   C      -4.679833      2.825833     -0.166207
|  6>   C      -4.685924      1.418418     -0.060302
|  7>   C      -3.474150      0.666491      0.041338
|  8>   C      -3.487850     -0.696529      0.144098
|  9>   C      -4.710156     -1.449231      0.155569
| 10>   C      -4.734470     -2.880798      0.263709
| 11>   C      -6.000626     -3.514118      0.261900
| 12>   C      -7.184836     -2.806069      0.163491
| 13>   C      -7.189267     -1.401036      0.058185
| 14>   C      -8.399836     -0.649694     -0.043499
| 15>   C      -8.393647      0.713527     -0.145503
| 16>   C      -7.166053      1.458360     -0.155408
| 17>   C      -5.933667      0.721056     -0.054041
| 18>   C      -5.940233     -0.711244      0.053422
| 19>   C      -8.345873      3.665320     -0.367266
| 20>   C      -3.504791     -3.655806      0.372429
| 21>   C      -8.459327      5.004072     -0.482293
| 22>   C      -3.413434     -5.009243      0.482586
| 23>   N      -2.257571     -5.724337      0.584791
| 24>   N      -9.768568      5.623486     -0.577466
| 25>   O      -9.774053      6.845812     -0.681613
| 26>   O     -10.773400      4.922175     -0.550621
| 27>   H      -5.821544      4.619808     -0.342913
| 28>   H      -3.723394      3.355173     -0.170596
| 29>   H      -2.523621      1.206874      0.035331
| 30>   H      -2.533406     -1.216833      0.218876
| 31>   H      -6.058126     -4.601479      0.340876
| 32>   H      -8.139095     -3.340638      0.167238
| 33>   H      -9.350449     -1.190710     -0.038422
| 34>   H      -9.347030      1.235308     -0.220801
| 35>   H      -9.303678      3.142749     -0.356385
| 36>   H      -2.559564     -3.109092      0.367505
| 37>   H      -7.663613      5.744852     -0.518601
| 38>   H      -4.311103     -5.634267      0.496409
| 39>   H      -2.272585     -6.729934      0.664411
| 40>   H      -1.355119     -5.267318      0.584951
| 41> *
| 42>
| 43>                          ****END OF INPUT****
 Total Charge           Charge          ....    0
 Multiplicity           Mult            ....    1
 Number of Electrons    NEL             ....  164
FINAL SINGLE POINT ENERGY     -1029.083768022931
                    ***********************HURRAY********************

CARTESIAN COORDINATES (ANGSTROEM)
---------------------------------
  C     -7.120688    2.887682   -0.262923
  C     -5.862910    3.532296   -0.263904
  C     -4.678852    2.826435   -0.164958
  C     -4.685026    1.418950   -0.058090
  C     -3.473371    0.666792    0.045020
  C     -3.487438   -0.696261    0.148225
  C     -4.709912   -1.448667    0.159280
  C     -4.734538   -2.880240    0.266808
  C     -6.000789   -3.513464    0.266048
  C     -7.184948   -2.805331    0.167559
  C     -7.189172   -1.400281    0.061213
  C     -8.399606   -0.648735   -0.041981
  C     -8.393006    0.714402   -0.145590
  C     -7.165209    1.458879   -0.155415
  C     -5.932914    0.721615   -0.052266
  C     -5.939935   -0.710602    0.056466
  C     -8.345163    3.664859   -0.369525
  C     -3.504973   -3.655635    0.372219
  C     -8.460023    5.003556   -0.484420
  C     -3.414283   -5.009351    0.479664
  N     -2.258638   -5.725554    0.577521
  N     -9.770154    5.621135   -0.580997
  O     -9.777569    6.843580   -0.683982
  O    -10.773858    4.918177   -0.556163
  H     -5.820522    4.620251   -0.344336
  H     -3.722441    3.355843   -0.168642
  H     -2.522699    1.206934    0.039551
  H     -2.533144   -1.216851    0.223617
  H     -6.058262   -4.600795    0.345154
  H     -8.139215   -3.339892    0.171267
  H     -9.350354   -1.189516   -0.037099
  H     -9.346216    1.236468   -0.221969
  H     -9.302540    3.141391   -0.359318
  H     -2.559404   -3.109384    0.365685
  H     -7.665377    5.745502   -0.519537
  H     -4.312384   -5.633745    0.494299
  H     -2.274153   -6.731272    0.655221
  H     -1.355865   -5.269172    0.576297

 Multiplicity           Mult            ....    1
 Number of Electrons    NEL             ....  164
 Basis Dimension        Dim             ....  406

ORBITAL ENERGIES
----------------

  NO   OCC          E(Eh)            E(eV)
   0   2.0000     -19.136229      -520.7233
   1   2.0000     -19.135948      -520.7156
   2   2.0000     -14.534746      -395.5105
   3   2.0000     -14.366792      -390.9403
   4   2.0000     -10.246312      -278.8163
   5   2.0000     -10.226675      -278.2820
   6   2.0000     -10.216136      -277.9952
   7   2.0000     -10.211468      -277.8682
   8   2.0000     -10.211162      -277.8599
   9   2.0000     -10.208278      -277.7814
  10   2.0000     -10.205894      -277.7165
  11   2.0000     -10.204846      -277.6880
  12   2.0000     -10.202414      -277.6218
  13   2.0000     -10.202102      -277.6133
  14   2.0000     -10.200390      -277.5667
  15   2.0000     -10.199270      -277.5362
  16   2.0000     -10.197036      -277.4755
  17   2.0000     -10.196977      -277.4739
  18   2.0000     -10.195941      -277.4456
  19   2.0000     -10.195783      -277.4414
  20   2.0000     -10.195636      -277.4374
  21   2.0000     -10.193151      -277.3697
  22   2.0000     -10.192923      -277.3635
  23   2.0000     -10.184222      -277.1268
  24   2.0000      -1.194899       -32.5149
  25   2.0000      -1.020338       -27.7648
  26   2.0000      -0.929689       -25.2981
  27   2.0000      -0.890161       -24.2225
  28   2.0000      -0.856007       -23.2931
  29   2.0000      -0.831385       -22.6231
  30   2.0000      -0.823015       -22.3954
  31   2.0000      -0.797912       -21.7123
  32   2.0000      -0.776468       -21.1288
  33   2.0000      -0.753136       -20.4939
  34   2.0000      -0.744365       -20.2552
  35   2.0000      -0.726558       -19.7706
  36   2.0000      -0.710834       -19.3428
  37   2.0000      -0.676290       -18.4028
  38   2.0000      -0.639284       -17.3958
  39   2.0000      -0.631451       -17.1826
  40   2.0000      -0.620235       -16.8775
  41   2.0000      -0.610685       -16.6176
  42   2.0000      -0.594547       -16.1784
  43   2.0000      -0.563632       -15.3372
  44   2.0000      -0.557292       -15.1647
  45   2.0000      -0.537948       -14.6383
  46   2.0000      -0.531208       -14.4549
  47   2.0000      -0.523352       -14.2411
  48   2.0000      -0.515486       -14.0271
  49   2.0000      -0.514885       -14.0107
  50   2.0000      -0.509524       -13.8648
  51   2.0000      -0.499269       -13.5858
  52   2.0000      -0.482117       -13.1191
  53   2.0000      -0.475795       -12.9470
  54   2.0000      -0.470530       -12.8038
  55   2.0000      -0.451634       -12.2896
  56   2.0000      -0.444279       -12.0894
  57   2.0000      -0.441340       -12.0095
  58   2.0000      -0.424942       -11.5633
  59   2.0000      -0.420060       -11.4304
  60   2.0000      -0.416354       -11.3296
  61   2.0000      -0.407072       -11.0770
  62   2.0000      -0.402437       -10.9509
  63   2.0000      -0.397716       -10.8224
  64   2.0000      -0.387337       -10.5400
  65   2.0000      -0.386940       -10.5292
  66   2.0000      -0.381808       -10.3895
  67   2.0000      -0.370037       -10.0692
  68   2.0000      -0.357839        -9.7373
  69   2.0000      -0.352203        -9.5839
  70   2.0000      -0.338365        -9.2074
  71   2.0000      -0.329245        -8.9592
  72   2.0000      -0.325520        -8.8579
  73   2.0000      -0.297176        -8.0866
  74   2.0000      -0.288182        -7.8418
  75   2.0000      -0.287948        -7.8355
  76   2.0000      -0.280796        -7.6408
  77   2.0000      -0.269738        -7.3400
  78   2.0000      -0.262576        -7.1451
  79   2.0000      -0.242325        -6.5940
  80   2.0000      -0.228814        -6.2263
  81   2.0000      -0.185563        -5.0494
  82   0.0000      -0.093486        -2.5439
  83   0.0000      -0.054631        -1.4866
  84   0.0000      -0.038250        -1.0408
  85   0.0000      -0.018545        -0.5046
  86   0.0000      -0.004940        -0.1344

MULLIKEN ATOMIC CHARGES
-----------------------
   0 C :    0.073248
   1 C :   -0.022604
   2 C :   -0.033092
   3 C :    0.074326
   4 C :   -0.016533
   5 C :   -0.029047
   6 C :    0.051714
   7 C :    0.105818
   8 C :   -0.049073
   9 C :   -0.021544
  10 C :    0.057463
  11 C :   -0.004597
  12 C :   -0.046864
  13 C :    0.081727
  14 C :    0.052136
  15 C :    0.069704
  16 C :    0.040224
  17 C :   -0.049192
  18 C :    0.056913
  19 C :    0.039405
  20 N :   -0.088024
  21 N :    0.233065
  22 O :   -0.266576
  23 O :   -0.262465
  24 H :   -0.024664
  25 H :   -0.031700
  26 H :   -0.034351
  27 H :   -0.037179
  28 H :   -0.039161
  29 H :   -0.033265
  30 H :   -0.029966
  31 H :   -0.028625
  32 H :    0.013273
  33 H :   -0.049171
  34 H :    0.001412
  35 H :    0.000649
  36 H :    0.126855
  37 H :    0.119762
Sum of atomic charges:   -0.0000000

LOEWDIN ATOMIC CHARGES
----------------------
   0 C :   -0.041936
   1 C :   -0.002927
   2 C :   -0.025854
   3 C :   -0.003495
   4 C :   -0.024695
   5 C :   -0.006003
   6 C :   -0.025270
   7 C :    0.005174
   8 C :   -0.031816
   9 C :   -0.008008
  10 C :   -0.032202
  11 C :   -0.003541
  12 C :   -0.030399
  13 C :    0.006444
  14 C :    0.001132
  15 C :    0.005416
  16 C :    0.025405
  17 C :   -0.121276
  18 C :   -0.032450
  19 C :    0.045536
  20 N :    0.004361
  21 N :    0.272362
  22 O :   -0.225687
  23 O :   -0.233388
  24 H :    0.028700
  25 H :    0.027993
  26 H :    0.027240
  27 H :    0.025266
  28 H :    0.021408
  29 H :    0.027639
  30 H :    0.029440
  31 H :    0.029429
  32 H :    0.037471
  33 H :    0.017512
  34 H :    0.026955
  35 H :    0.025210
  36 H :    0.080167
  37 H :    0.078686

  Mayer bond orders larger than 0.100000
B(  0-C ,  1-C ) :   1.2941 B(  0-C , 13-C ) :   1.2411 B(  0-C , 16-C ) :   1.1181
B(  1-C ,  2-C ) :   1.4098 B(  1-C , 24-H ) :   0.9785 B(  2-C ,  3-C ) :   1.2566
B(  2-C , 25-H ) :   0.9879 B(  3-C ,  4-C ) :   1.1719 B(  3-C , 14-C ) :   1.2414
B(  4-C ,  5-C ) :   1.5266 B(  4-C , 26-H ) :   0.9837 B(  5-C ,  6-C ) :   1.1769
B(  5-C , 27-H ) :   0.9778 B(  6-C ,  7-C ) :   1.2436 B(  6-C , 15-C ) :   1.2332
B(  7-C ,  8-C ) :   1.2912 B(  7-C , 17-C ) :   1.1596 B(  8-C ,  9-C ) :   1.4139
B(  8-C , 28-H ) :   0.9742 B(  9-C , 10-C ) :   1.2604 B(  9-C , 29-H ) :   0.9849
B( 10-C , 11-C ) :   1.1688 B( 10-C , 15-C ) :   1.2448 B( 11-C , 12-C ) :   1.5243
B( 11-C , 30-H ) :   0.9835 B( 12-C , 13-C ) :   1.1812 B( 12-C , 31-H ) :   0.9796
B( 13-C , 14-C ) :   1.2334 B( 14-C , 15-C ) :   1.2282 B( 16-C , 18-C ) :   1.6275
B( 16-C , 32-H ) :   0.9448 B( 17-C , 19-C ) :   1.6182 B( 17-C , 33-H ) :   0.9550
B( 18-C , 21-N ) :   0.9479 B( 18-C , 34-H ) :   0.9833 B( 19-C , 20-N ) :   1.2774
B( 19-C , 35-H ) :   0.9511 B( 20-N , 36-H ) :   0.9532 B( 20-N , 37-H ) :   0.9565
B( 21-N , 22-O ) :   1.4878 B( 21-N , 23-O ) :   1.5137 B( 22-O , 23-O ) :   0.2689

FINAL SINGLE POINT ENERGY     -1029.083769118037

DIPOLE MOMENT
-------------
                                X             Y             Z
Electronic contribution:     -9.93043      14.40090      -1.47963
Nuclear contribution   :     13.05832     -18.27405       1.89669
                        -----------------------------------------
Total Dipole Moment    :      3.12789      -3.87315       0.41705
                        -----------------------------------------
Magnitude (a.u.)       :      4.99589
Magnitude (Debye)      :     12.69854

VIBRATIONAL FREQUENCIES
-----------------------

Scaling factor for frequencies =  1.000000000  (already applied!)

   0:         0.00 cm**-1
   1:         0.00 cm**-1
   2:         0.00 cm**-1
   3:         0.00 cm**-1
   4:         0.00 cm**-1
   5:         0.00 cm**-1
   6:      -221.40 cm**-1 ***imaginary mode***
   7:       -61.03 cm**-1 ***imaginary mode***
   8:        21.92 cm**-1
   9:        29.75 cm**-1
  10:        62.82 cm**-1
  11:        67.56 cm**-1
  12:       100.63 cm**-1
  13:       122.70 cm**-1
  14:       124.36 cm**-1
  15:       161.73 cm**-1
  16:       201.92 cm**-1
  17:       216.31 cm**-1
  18:       220.33 cm**-1
  19:       252.57 cm**-1
  20:       262.43 cm**-1
  21:       299.91 cm**-1
  22:       310.25 cm**-1
  23:       347.52 cm**-1
  24:       384.55 cm**-1
  25:       422.83 cm**-1
  26:       448.05 cm**-1
  27:       449.98 cm**-1
  28:       495.17 cm**-1
  29:       503.81 cm**-1
  30:       520.70 cm**-1
  31:       525.03 cm**-1
  32:       529.66 cm**-1
  33:       560.07 cm**-1
  34:       570.70 cm**-1
  35:       580.03 cm**-1
  36:       603.28 cm**-1
  37:       633.91 cm**-1
  38:       668.05 cm**-1
  39:       701.44 cm**-1
  40:       716.94 cm**-1
  41:       735.68 cm**-1
  42:       741.25 cm**-1
  43:       760.46 cm**-1
  44:       774.71 cm**-1
  45:       794.74 cm**-1
  46:       815.19 cm**-1
  47:       819.63 cm**-1
  48:       830.70 cm**-1
  49:       846.85 cm**-1
  50:       858.95 cm**-1
  51:       870.42 cm**-1
  52:       881.02 cm**-1
  53:       888.75 cm**-1
  54:       944.71 cm**-1
  55:       976.18 cm**-1
  56:       980.83 cm**-1
  57:       991.32 cm**-1
  58:       993.84 cm**-1
  59:      1000.35 cm**-1
  60:      1009.34 cm**-1
  61:      1010.12 cm**-1
  62:      1014.76 cm**-1
  63:      1017.30 cm**-1
  64:      1055.39 cm**-1
  65:      1118.53 cm**-1
  66:      1134.21 cm**-1
  67:      1181.27 cm**-1
  68:      1189.02 cm**-1
  69:      1204.01 cm**-1
  70:      1210.47 cm**-1
  71:      1233.99 cm**-1
  72:      1254.15 cm**-1
  73:      1263.21 cm**-1
  74:      1272.53 cm**-1
  75:      1279.08 cm**-1
  76:      1298.58 cm**-1
  77:      1320.26 cm**-1
  78:      1333.59 cm**-1
  79:      1335.63 cm**-1
  80:      1370.42 cm**-1
  81:      1381.43 cm**-1
  82:      1397.88 cm**-1
  83:      1405.91 cm**-1
  84:      1414.72 cm**-1
  85:      1427.11 cm**-1
  86:      1444.71 cm**-1
  87:      1469.04 cm**-1
  88:      1507.43 cm**-1
  89:      1535.11 cm**-1
  90:      1548.33 cm**-1
  91:      1571.45 cm**-1
  92:      1610.04 cm**-1
  93:      1621.19 cm**-1
  94:      1625.12 cm**-1
  95:      1644.34 cm**-1
  96:      1658.25 cm**-1
  97:      1665.34 cm**-1
  98:      1692.29 cm**-1
  99:      1710.70 cm**-1
 100:      3168.76 cm**-1
 101:      3172.57 cm**-1
 102:      3173.26 cm**-1
 103:      3175.78 cm**-1
 104:      3177.69 cm**-1
 105:      3181.85 cm**-1
 106:      3195.11 cm**-1
 107:      3198.23 cm**-1
 108:      3205.40 cm**-1
 109:      3217.97 cm**-1
 110:      3223.41 cm**-1
 111:      3254.08 cm**-1
 112:      3606.90 cm**-1
 113:      3735.86 cm**-1

IR SPECTRUM
-----------

 Mode   freq       eps      Int      T**2         TX        TY        TZ
       cm**-1   L/(mol*cm) km/mol    a.u.
----------------------------------------------------------------------------
  8:     21.92   0.000013    0.06  0.000183  ( 0.000102  0.000342  0.013523)
  9:     29.75   0.000003    0.02  0.000032  (-0.000457 -0.000049 -0.005651)
 10:     62.82   0.000761    3.84  0.003778  ( 0.002346 -0.004759 -0.061238)
 11:     67.56   0.000097    0.49  0.000446  (-0.005225 -0.020415  0.001441)
 12:    100.63   0.000009    0.04  0.000027  (-0.000241  0.000602  0.005191)
 13:    122.70   0.000257    1.30  0.000653  ( 0.001161  0.004093  0.025196)
 14:    124.36   0.000775    3.92  0.001945  ( 0.020350  0.038932 -0.003838)
 15:    161.73   0.001134    5.73  0.002189  (-0.001352  0.003133  0.046659)
 16:    201.92   0.001635    8.26  0.002527  ( 0.002385 -0.004163 -0.050044)
 17:    216.31   0.000004    0.02  0.000006  (-0.002291 -0.000593 -0.000013)
 18:    220.33   0.000696    3.52  0.000986  (-0.001324  0.002566  0.031262)
 19:    252.57   0.000277    1.40  0.000342  (-0.017307  0.006384 -0.001358)
 20:    262.43   0.000018    0.09  0.000021  ( 0.000259 -0.000546 -0.004562)
 21:    299.91   0.000251    1.27  0.000262  (-0.000648  0.001230  0.016112)
 22:    310.25   0.000617    3.12  0.000620  (-0.014290  0.020279 -0.002194)
 23:    347.52   0.000230    1.16  0.000207  ( 0.009373 -0.010859  0.001023)
 24:    384.55   0.000482    2.43  0.000391  ( 0.000904 -0.001719 -0.019672)
 25:    422.83   0.002794   14.12  0.002062  ( 0.025045 -0.037685  0.003851)
 26:    448.05   0.000639    3.23  0.000445  (-0.017136  0.012223 -0.001463)
 27:    449.98   0.000006    0.03  0.000004  ( 0.000798 -0.000445  0.001838)
 28:    495.17   0.000306    1.54  0.000193  ( 0.000562 -0.001046 -0.013829)
 29:    503.81   0.000578    2.92  0.000358  ( 0.005535 -0.018032  0.001561)
 30:    520.70   0.000185    0.94  0.000111  ( 0.002757 -0.010136  0.000863)
 31:    525.03   0.000002    0.01  0.000001  (-0.000009 -0.000096 -0.001096)
 32:    529.66   0.000928    4.69  0.000547  (-0.000442  0.023307 -0.001788)
 33:    560.07   0.000383    1.94  0.000214  (-0.000526  0.001054  0.014566)
 34:    570.70   0.000685    3.46  0.000375  ( 0.001070 -0.001971 -0.019225)
 35:    580.03   0.001006    5.08  0.000541  (-0.008361  0.021591 -0.002291)
 36:    603.28   0.001607    8.12  0.000832  ( 0.014123 -0.025030  0.002352)
 37:    633.91   0.000751    3.79  0.000369  ( 0.008526 -0.017149  0.001649)
 38:    668.05   0.000025    0.12  0.000011  (-0.000165  0.000360  0.003367)
 39:    701.44   0.000347    1.76  0.000155  (-0.009514  0.007947 -0.000949)
 40:    716.94   0.001139    5.75  0.000496  ( 0.000650 -0.001405 -0.022209)
 41:    735.68   0.000542    2.74  0.000230  (-0.015000 -0.002169 -0.000317)
 42:    741.25   0.000121    0.61  0.000051  ( 0.000167 -0.000429 -0.007118)
 43:    760.46   0.002685   13.57  0.001102  (-0.001187  0.002633  0.033066)
 44:    774.71   0.001977    9.99  0.000796  ( 0.021463 -0.018180  0.002229)
 45:    794.74   0.003718   18.79  0.001460  (-0.031337  0.021677 -0.002833)
 46:    815.19   0.000090    0.45  0.000034  (-0.000265  0.000697  0.005812)
 47:    819.63   0.003285   16.60  0.001251  ( 0.002729 -0.035150  0.002789)
 48:    830.70   0.000491    2.48  0.000184  (-0.000527  0.000973  0.013537)
 49:    846.85   0.005119   25.87  0.001886  ( 0.001558 -0.003584 -0.043254)
 50:    858.95   0.000141    0.71  0.000051  (-0.007120 -0.000596 -0.000362)
 51:    870.42   0.007257   36.67  0.002602  ( 0.001920 -0.003539 -0.050847)
 52:    881.02   0.002747   13.88  0.000973  (-0.001186  0.002609  0.031060)
 53:    888.75   0.002878   14.54  0.001010  ( 0.001181 -0.002508 -0.031666)
 54:    944.71   0.000733    3.70  0.000242  (-0.000524  0.001149  0.015505)
 55:    976.18   0.004901   24.77  0.001567  ( 0.001318 -0.002756 -0.039465)
 56:    980.83   0.022464  113.53  0.007147  (-0.042184  0.072927 -0.007035)
 57:    991.32   0.000476    2.41  0.000150  (-0.000496  0.000996  0.012197)
 58:    993.84   0.000766    3.87  0.000241  (-0.000505  0.001109  0.015463)
 59:   1000.35   0.001031    5.21  0.000321  ( 0.010447 -0.014491  0.001537)
 60:   1009.34   0.000621    3.14  0.000192  ( 0.000893 -0.001679 -0.013726)
 61:   1010.12   0.027463  138.78  0.008484  (-0.051163  0.076200 -0.007751)
 62:   1014.76   0.000914    4.62  0.000281  ( 0.000529 -0.001292 -0.016705)
 63:   1017.30   0.000815    4.12  0.000250  ( 0.000277 -0.000773 -0.015792)
 64:   1055.39   0.007375   37.27  0.002181  (-0.015797  0.043769 -0.003919)
 65:   1118.53   0.000298    1.50  0.000083  ( 0.000448 -0.009077  0.000700)
 66:   1134.21   0.000130    0.66  0.000036  ( 0.005159 -0.002992  0.000404)
 67:   1181.27   0.000221    1.12  0.000058  ( 0.004649 -0.006035  0.000616)
 68:   1189.02   0.000129    0.65  0.000034  ( 0.005773 -0.000623  0.000229)
 69:   1204.01   0.006886   34.80  0.001785  ( 0.021326 -0.036289  0.003605)
 70:   1210.47   0.004276   21.61  0.001102  ( 0.033147 -0.001296  0.001377)
 71:   1233.99   0.000158    0.80  0.000040  (-0.005604 -0.002932  0.000043)
 72:   1254.15   0.131282  663.45  0.032666  ( 0.098491 -0.150773  0.015272)
 73:   1263.21   0.040085  202.57  0.009903  (-0.046081  0.087782 -0.008570)
 74:   1272.53   0.003777   19.09  0.000926  ( 0.014971 -0.026369  0.002585)
 75:   1279.08   0.031182  157.58  0.007608  ( 0.046273 -0.073551  0.007526)
 76:   1298.58   0.021693  109.63  0.005213  (-0.043939  0.056970 -0.006078)
 77:   1320.26   0.003894   19.68  0.000920  (-0.020852  0.021892 -0.002519)
 78:   1333.59   0.019709   99.60  0.004612  ( 0.027021 -0.062039  0.005744)
 79:   1335.63   0.019806  100.09  0.004628  (-0.037572  0.056417 -0.005752)
 80:   1370.42   0.003086   15.59  0.000703  (-0.009565  0.024615 -0.002299)
 81:   1381.43   0.001745    8.82  0.000394  ( 0.019613 -0.002931  0.000973)
 82:   1397.88   0.243716  1231.64  0.054407  ( 0.152990 -0.175003  0.019371)
 83:   1405.91   0.000770    3.89  0.000171  ( 0.006109 -0.011511  0.001089)
 84:   1414.72   0.008416   42.53  0.001857  (-0.035220  0.024605 -0.003266)
 85:   1427.11   0.005760   29.11  0.001259  ( 0.009276 -0.034128  0.002957)
 86:   1444.71   0.000366    1.85  0.000079  ( 0.002527 -0.008493  0.000737)
 87:   1469.04   0.003427   17.32  0.000728  ( 0.022065 -0.015397  0.001987)
 88:   1507.43   0.000511    2.58  0.000106  (-0.005767 -0.008507  0.000434)
 89:   1535.11   0.002263   11.44  0.000460  ( 0.018818 -0.010186  0.001485)
 90:   1548.33   0.012020   60.75  0.002423  ( 0.017721 -0.045728  0.004195)
 91:   1571.45   0.006898   34.86  0.001370  (-0.025731  0.026432 -0.003011)
 92:   1610.04   0.001748    8.84  0.000339  ( 0.016280  0.008593 -0.000017)
 93:   1621.19   0.000057    0.29  0.000011  (-0.000161  0.003293 -0.000296)
 94:   1625.12   0.092846  469.21  0.017829  (-0.111024  0.073578 -0.009411)
 95:   1644.34   0.080640  407.52  0.015304  ( 0.043057 -0.115468  0.010822)
 96:   1658.25   0.004079   20.61  0.000768  ( 0.027444  0.003740  0.000641)
 97:   1665.34   0.064988  328.42  0.012178  (-0.028032  0.106321 -0.009378)
 98:   1692.29   0.035790  180.87  0.006600  ( 0.009039 -0.080431  0.006998)
 99:   1710.70   0.179265  905.93  0.032701  ( 0.101376 -0.148972  0.015218)
100:   3168.76   0.000364    1.84  0.000036  (-0.005927  0.000776 -0.000281)
101:   3172.57   0.001157    5.85  0.000114  ( 0.009616 -0.004562  0.000715)
102:   3173.26   0.003881   19.61  0.000382  ( 0.019522  0.000298  0.000717)
103:   3175.78   0.002211   11.17  0.000217  ( 0.013386 -0.006089  0.000977)
104:   3177.69   0.001122    5.67  0.000110  (-0.010373 -0.001588 -0.000279)
105:   3181.85   0.001512    7.64  0.000148  (-0.008266  0.008890 -0.000976)
106:   3195.11   0.005501   27.80  0.000537  (-0.006425 -0.022224  0.001448)
107:   3198.23   0.002300   11.62  0.000224  ( 0.005258  0.014002 -0.000862)
108:   3205.40   0.000942    4.76  0.000092  ( 0.009175  0.002749  0.000099)
109:   3217.97   0.003479   17.58  0.000337  ( 0.018146 -0.002699  0.000895)
110:   3223.41   0.000442    2.23  0.000043  (-0.005831  0.002933 -0.000467)
111:   3254.08   0.003252   16.44  0.000312  (-0.009348  0.014903 -0.001552)
112:   3606.90   0.060421  305.34  0.005228  (-0.044561  0.056617 -0.006034)
113:   3735.86   0.015706   79.37  0.001312  ( 0.003529  0.035951 -0.002650)

--------------------------
THERMOCHEMISTRY AT 298.15K
--------------------------

Temperature         ... 298.15 K
Pressure            ... 1.00 atm
Total Mass          ... 314.34 AMU

Throughout the following assumptions are being made:
  (1) The electronic state is orbitally nondegenerate
  (2) There are no thermally accessible electronically excited states
  (3) Hindered rotations indicated by low frequency modes are not
      treated as such but are treated as vibrations and this may
      cause some error
  (4) All equations used are the standard statistical mechanics
      equations for an ideal gas
  (5) All vibrations are strictly harmonic

freq.      21.92  E(vib)   ...       0.56
freq.      29.75  E(vib)   ...       0.55
freq.      62.82  E(vib)   ...       0.51
freq.      67.56  E(vib)   ...       0.50
freq.     100.63  E(vib)   ...       0.46
freq.     122.70  E(vib)   ...       0.43
freq.     124.36  E(vib)   ...       0.43
freq.     161.73  E(vib)   ...       0.39
freq.     201.92  E(vib)   ...       0.35
freq.     216.31  E(vib)   ...       0.34
freq.     220.33  E(vib)   ...       0.33
freq.     252.57  E(vib)   ...       0.30
freq.     262.43  E(vib)   ...       0.29
freq.     299.91  E(vib)   ...       0.26
freq.     310.25  E(vib)   ...       0.26
freq.     347.52  E(vib)   ...       0.23
freq.     384.55  E(vib)   ...       0.20
freq.     422.83  E(vib)   ...       0.18
freq.     448.05  E(vib)   ...       0.17
freq.     449.98  E(vib)   ...       0.17
freq.     495.17  E(vib)   ...       0.14
freq.     503.81  E(vib)   ...       0.14
freq.     520.70  E(vib)   ...       0.13
freq.     525.03  E(vib)   ...       0.13
freq.     529.66  E(vib)   ...       0.13
freq.     560.07  E(vib)   ...       0.12
freq.     570.70  E(vib)   ...       0.11
freq.     580.03  E(vib)   ...       0.11
freq.     603.28  E(vib)   ...       0.10
freq.     633.91  E(vib)   ...       0.09
freq.     668.05  E(vib)   ...       0.08
freq.     701.44  E(vib)   ...       0.07
freq.     716.94  E(vib)   ...       0.07
freq.     735.68  E(vib)   ...       0.06
freq.     741.25  E(vib)   ...       0.06
freq.     760.46  E(vib)   ...       0.06
freq.     774.71  E(vib)   ...       0.05
freq.     794.74  E(vib)   ...       0.05
freq.     815.19  E(vib)   ...       0.05
freq.     819.63  E(vib)   ...       0.05
freq.     830.70  E(vib)   ...       0.04
freq.     846.85  E(vib)   ...       0.04
freq.     858.95  E(vib)   ...       0.04
freq.     870.42  E(vib)   ...       0.04
freq.     881.02  E(vib)   ...       0.04
freq.     888.75  E(vib)   ...       0.04
freq.     944.71  E(vib)   ...       0.03
freq.     976.18  E(vib)   ...       0.03
freq.     980.83  E(vib)   ...       0.02
freq.     991.32  E(vib)   ...       0.02
freq.     993.84  E(vib)   ...       0.02
freq.    1000.35  E(vib)   ...       0.02
freq.    1009.34  E(vib)   ...       0.02
freq.    1010.12  E(vib)   ...       0.02
freq.    1014.76  E(vib)   ...       0.02
freq.    1017.30  E(vib)   ...       0.02
freq.    1055.39  E(vib)   ...       0.02
freq.    1118.53  E(vib)   ...       0.01
freq.    1134.21  E(vib)   ...       0.01
freq.    1181.27  E(vib)   ...       0.01
freq.    1189.02  E(vib)   ...       0.01
freq.    1204.01  E(vib)   ...       0.01
freq.    1210.47  E(vib)   ...       0.01
freq.    1233.99  E(vib)   ...       0.01
freq.    1254.15  E(vib)   ...       0.01
freq.    1263.21  E(vib)   ...       0.01
freq.    1272.53  E(vib)   ...       0.01
freq.    1279.08  E(vib)   ...       0.01
freq.    1298.58  E(vib)   ...       0.01
freq.    1320.26  E(vib)   ...       0.01
freq.    1333.59  E(vib)   ...       0.01
freq.    1335.63  E(vib)   ...       0.01
freq.    1370.42  E(vib)   ...       0.01
freq.    1381.43  E(vib)   ...       0.01
freq.    1397.88  E(vib)   ...       0.00
freq.    1405.91  E(vib)   ...       0.00
freq.    1414.72  E(vib)   ...       0.00
freq.    1427.11  E(vib)   ...       0.00
freq.    1444.71  E(vib)   ...       0.00
freq.    1469.04  E(vib)   ...       0.00
freq.    1507.43  E(vib)   ...       0.00
freq.    1535.11  E(vib)   ...       0.00
freq.    1548.33  E(vib)   ...       0.00
freq.    1571.45  E(vib)   ...       0.00
freq.    1610.04  E(vib)   ...       0.00
freq.    1621.19  E(vib)   ...       0.00
freq.    1625.12  E(vib)   ...       0.00
freq.    1644.34  E(vib)   ...       0.00
freq.    1658.25  E(vib)   ...       0.00
freq.    1665.34  E(vib)   ...       0.00
freq.    1692.29  E(vib)   ...       0.00
freq.    1710.70  E(vib)   ...       0.00
freq.    3168.76  E(vib)   ...       0.00
freq.    3172.57  E(vib)   ...       0.00
freq.    3173.26  E(vib)   ...       0.00
freq.    3175.78  E(vib)   ...       0.00
freq.    3177.69  E(vib)   ...       0.00
freq.    3181.85  E(vib)   ...       0.00
freq.    3195.11  E(vib)   ...       0.00
freq.    3198.23  E(vib)   ...       0.00
freq.    3205.40  E(vib)   ...       0.00
freq.    3217.97  E(vib)   ...       0.00
freq.    3223.41  E(vib)   ...       0.00
freq.    3254.08  E(vib)   ...       0.00
freq.    3606.90  E(vib)   ...       0.00
freq.    3735.86  E(vib)   ...       0.00

------------
INNER ENERGY
------------

The inner energy is: U= E(el) + E(ZPE) + E(vib) + E(rot) + E(trans)
    E(el)   - is the total energy from the electronic structure calculation
              = E(kin-el) + E(nuc-el) + E(el-el) + E(nuc-nuc)
    E(ZPE)  - the the zero temperature vibrational energy from the frequency calculation
    E(vib)  - the the finite temperature correction to E(ZPE) due to population
              of excited vibrational states
    E(rot)  - is the rotational thermal energy
    E(trans)- is the translational thermal energy

Summary of contributions to the inner energy U:
Electronic energy                ...  -1029.08376912 Eh
Zero point energy                ...      0.29330400 Eh     184.05 kcal/mol
Thermal vibrational correction   ...      0.01496657 Eh       9.39 kcal/mol
Thermal rotational correction    ...      0.00141627 Eh       0.89 kcal/mol
Thermal translational correction ...      0.00141627 Eh       0.89 kcal/mol
-----------------------------------------------------------------------
Total thermal energy                  -1028.77266600 Eh

Summary of corrections to the electronic energy:
(perhaps to be used in another calculation)
Total thermal correction                  0.01779912 Eh      11.17 kcal/mol
Non-thermal (ZPE) correction              0.29330400 Eh     184.05 kcal/mol
-----------------------------------------------------------------------
Total correction                          0.31110311 Eh     195.22 kcal/mol

--------
ENTHALPY
--------

The enthalpy is H = U + kB*T
                kB is Boltzmann's constant

Rotational constants in cm-1:     0.024972     0.003321     0.002931

                             ****ORCA TERMINATED NORMALLY****
TOTAL RUN TIME: 0 days 0 hours 36 minutes 44 seconds 583 msec
