                         Program Version 5.0.4 -  RELEASE  -
|  1> ! B3LYP def2-SVP Opt PAL8 FREQ
|  2> #defgrid3 slowconv VeryTightSCF
|  3> *xyz 0 1
|  4>   C   -7.124680    2.738264   -0.255765
|  5>   C   -5.923520    3.349613   -0.257371
|  6>   C   -4.776417    2.669970   -0.162584
|  7>   C   -4.796981    1.334931   -0.061303
|  8>   C   -3.638721    0.668810    0.033511
|  9>   C   -3.633823   -0.664679    0.136532
| 10>   C   -4.771317   -1.388092    0.149270
| 11>   C   -4.770883   -2.745842    0.254684
| 12>   C   -5.968669   -3.362797    0.255382
| 13>   C   -7.116233   -2.684200    0.158112
| 14>   C   -7.096362   -1.348812    0.056426
| 15>   C   -8.254144   -0.682486   -0.039364
| 16>   C   -8.258998    0.651192   -0.141208
| 17>   C   -7.123641    1.379011   -0.152856
| 18>   C   -5.967332    0.671169   -0.054916
| 19>   C   -5.927907   -0.681713    0.050301
| 20>   C   -8.247375    3.493677   -0.354049
| 21>   C   -3.652041   -3.503172    0.358008
| 22>   C   -8.374570    4.833184   -0.459494
| 23>   C   -3.549357   -4.839479    0.466465
| 24>   N   -2.424145   -5.416177    0.556365
| 25>   N   -9.473336    5.435730   -0.544580
| 26>   O   -9.504650    6.746315   -0.643979
| 27>   O  -10.645519    4.843550   -0.542156
| 28>   H   -5.796629    4.439206   -0.335313
| 29>   H   -3.823789    3.228232   -0.169090
| 30>   H   -2.673091    1.204699    0.028670
| 31>   H   -2.626572   -1.098229    0.208038
| 32>   H   -6.084938   -4.453961    0.335179
| 33>   H   -8.068037   -3.243687    0.164124
| 34>   H   -9.219420   -1.219135   -0.035687
| 35>   H   -9.268795    1.078542   -0.212855
| 36>   H   -9.221226    2.987170   -0.351218
| 37>   H   -2.662335   -3.023429    0.360162
| 38>   H   -7.480963    5.475282   -0.475291
| 39>   H   -4.377702   -5.558605    0.489696
| 40>   H   -2.363070   -6.460902    0.640457
| 41>   H   -1.538360   -4.853151    0.547696
| 42> **                         ****END OF INPUT****
 Total Charge           Charge          ....    0
 Multiplicity           Mult            ....    1
 Number of Electrons    NEL             ....  164
FINAL SINGLE POINT ENERGY     -1028.910250756144
FINAL SINGLE POINT ENERGY     -1029.013248550752
FINAL SINGLE POINT ENERGY     -1029.066428019193
FINAL SINGLE POINT ENERGY     -1029.081457774118
FINAL SINGLE POINT ENERGY     -1029.083131333134
FINAL SINGLE POINT ENERGY     -1029.083655248416
FINAL SINGLE POINT ENERGY     -1029.083777188726
FINAL SINGLE POINT ENERGY     -1029.083795774955
FINAL SINGLE POINT ENERGY     -1029.083800136593
                    ***********************HURRAY********************

CARTESIAN COORDINATES (ANGSTROEM)
---------------------------------
  C     -7.121715    2.887296   -0.261826
  C     -5.863942    3.531765   -0.263353
  C     -4.679833    2.825833   -0.166207
  C     -4.685924    1.418418   -0.060302
  C     -3.474150    0.666491    0.041338
  C     -3.487850   -0.696529    0.144098
  C     -4.710156   -1.449231    0.155569
  C     -4.734470   -2.880798    0.263709
  C     -6.000626   -3.514118    0.261900
  C     -7.184836   -2.806069    0.163491
  C     -7.189267   -1.401036    0.058185
  C     -8.399836   -0.649694   -0.043499
  C     -8.393647    0.713527   -0.145503
  C     -7.166053    1.458360   -0.155408
  C     -5.933667    0.721056   -0.054041
  C     -5.940233   -0.711244    0.053422
  C     -8.345873    3.665320   -0.367266
  C     -3.504791   -3.655806    0.372429
  C     -8.459327    5.004072   -0.482293
  C     -3.413434   -5.009243    0.482586
  N     -2.257571   -5.724337    0.584791
  N     -9.768568    5.623486   -0.577466
  O     -9.774053    6.845812   -0.681613
  O    -10.773400    4.922175   -0.550621
  H     -5.821544    4.619808   -0.342913
  H     -3.723394    3.355173   -0.170596
  H     -2.523621    1.206874    0.035331
  H     -2.533406   -1.216833    0.218876
  H     -6.058126   -4.601479    0.340876
  H     -8.139095   -3.340638    0.167238
  H     -9.350449   -1.190710   -0.038422
  H     -9.347030    1.235308   -0.220801
  H     -9.303678    3.142749   -0.356385
  H     -2.559564   -3.109092    0.367505
  H     -7.663613    5.744852   -0.518601
  H     -4.311103   -5.634267    0.496409
  H     -2.272585   -6.729934    0.664411
  H     -1.355119   -5.267318    0.584951

 Multiplicity           Mult            ....    1
 Number of Electrons    NEL             ....  164
 Basis Dimension        Dim             ....  406

ORBITAL ENERGIES
----------------

  NO   OCC          E(Eh)            E(eV)
   0   2.0000     -19.136246      -520.7237
   1   2.0000     -19.135977      -520.7164
   2   2.0000     -14.534764      -395.5110
   3   2.0000     -14.366813      -390.9408
   4   2.0000     -10.246312      -278.8163
   5   2.0000     -10.226691      -278.2824
   6   2.0000     -10.216160      -277.9958
   7   2.0000     -10.211469      -277.8682
   8   2.0000     -10.211165      -277.8599
   9   2.0000     -10.208284      -277.7815
  10   2.0000     -10.205832      -277.7148
  11   2.0000     -10.204827      -277.6874
  12   2.0000     -10.202395      -277.6213
  13   2.0000     -10.202089      -277.6130
  14   2.0000     -10.200345      -277.5655
  15   2.0000     -10.199229      -277.5351
  16   2.0000     -10.197017      -277.4749
  17   2.0000     -10.196952      -277.4732
  18   2.0000     -10.195896      -277.4444
  19   2.0000     -10.195742      -277.4402
  20   2.0000     -10.195603      -277.4365
  21   2.0000     -10.193125      -277.3690
  22   2.0000     -10.192905      -277.3630
  23   2.0000     -10.184209      -277.1264
  24   2.0000      -1.194923       -32.5155
  25   2.0000      -1.020364       -27.7655
  26   2.0000      -0.929723       -25.2990
  27   2.0000      -0.890168       -24.2227
  28   2.0000      -0.856008       -23.2931
  29   2.0000      -0.831401       -22.6236
  30   2.0000      -0.823034       -22.3959
  31   2.0000      -0.797913       -21.7123
  32   2.0000      -0.776465       -21.1287
  33   2.0000      -0.753144       -20.4941
  34   2.0000      -0.744379       -20.2556
  35   2.0000      -0.726561       -19.7707
  36   2.0000      -0.710858       -19.3434
  37   2.0000      -0.676316       -18.4035
  38   2.0000      -0.639288       -17.3959
  39   2.0000      -0.631452       -17.1827
  40   2.0000      -0.620247       -16.8778
  41   2.0000      -0.610697       -16.6179
  42   2.0000      -0.594564       -16.1789
  43   2.0000      -0.563653       -15.3378
  44   2.0000      -0.557303       -15.1650
  45   2.0000      -0.537952       -14.6384
  46   2.0000      -0.531206       -14.4548
  47   2.0000      -0.523364       -14.2415
  48   2.0000      -0.515511       -14.0278
  49   2.0000      -0.514897       -14.0110
  50   2.0000      -0.509526       -13.8649
  51   2.0000      -0.499260       -13.5856
  52   2.0000      -0.482132       -13.1195
  53   2.0000      -0.475818       -12.9477
  54   2.0000      -0.470528       -12.8037
  55   2.0000      -0.451619       -12.2892
  56   2.0000      -0.444275       -12.0893
  57   2.0000      -0.441345       -12.0096
  58   2.0000      -0.424970       -11.5640
  59   2.0000      -0.420072       -11.4307
  60   2.0000      -0.416343       -11.3293
  61   2.0000      -0.407075       -11.0771
  62   2.0000      -0.402444       -10.9511
  63   2.0000      -0.397742       -10.8231
  64   2.0000      -0.387332       -10.5398
  65   2.0000      -0.386941       -10.5292
  66   2.0000      -0.381801       -10.3893
  67   2.0000      -0.370056       -10.0697
  68   2.0000      -0.357845        -9.7374
  69   2.0000      -0.352214        -9.5842
  70   2.0000      -0.338370        -9.2075
  71   2.0000      -0.329259        -8.9596
  72   2.0000      -0.325515        -8.8577
  73   2.0000      -0.297172        -8.0865
  74   2.0000      -0.288198        -7.8423
  75   2.0000      -0.287964        -7.8359
  76   2.0000      -0.280807        -7.6411
  77   2.0000      -0.269760        -7.3405
  78   2.0000      -0.262578        -7.1451
  79   2.0000      -0.242325        -6.5940
  80   2.0000      -0.228812        -6.2263
  81   2.0000      -0.185568        -5.0496
  82   0.0000      -0.093490        -2.5440
  83   0.0000      -0.054627        -1.4865
  84   0.0000      -0.038234        -1.0404
  85   0.0000      -0.018535        -0.5044
  86   0.0000      -0.004928        -0.1341

MULLIKEN ATOMIC CHARGES
-----------------------
   0 C :    0.073036
   1 C :   -0.022754
   2 C :   -0.032976
   3 C :    0.074512
   4 C :   -0.016743
   5 C :   -0.029193
   6 C :    0.052155
   7 C :    0.105901
   8 C :   -0.049253
   9 C :   -0.021433
  10 C :    0.057617
  11 C :   -0.004774
  12 C :   -0.047054
  13 C :    0.082295
  14 C :    0.052135
  15 C :    0.069697
  16 C :    0.040142
  17 C :   -0.049101
  18 C :    0.056968
  19 C :    0.039101
  20 N :   -0.087982
  21 N :    0.233041
  22 O :   -0.266581
  23 O :   -0.262410
  24 H :   -0.024619
  25 H :   -0.031808
  26 H :   -0.034412
  27 H :   -0.037241
  28 H :   -0.039139
  29 H :   -0.033354
  30 H :   -0.030021
  31 H :   -0.028695
  32 H :    0.013360
  33 H :   -0.049214
  34 H :    0.001415
  35 H :    0.000674
  36 H :    0.126930
  37 H :    0.119780
Sum of atomic charges:    0.0000000

LOEWDIN ATOMIC CHARGES
----------------------
   0 C :   -0.041922
   1 C :   -0.002960
   2 C :   -0.025809
   3 C :   -0.003527
   4 C :   -0.024674
   5 C :   -0.006002
   6 C :   -0.025244
   7 C :    0.005181
   8 C :   -0.031841
   9 C :   -0.007974
  10 C :   -0.032219
  11 C :   -0.003525
  12 C :   -0.030386
  13 C :    0.006443
  14 C :    0.001134
  15 C :    0.005405
  16 C :    0.025424
  17 C :   -0.121287
  18 C :   -0.032440
  19 C :    0.045495
  20 N :    0.004371
  21 N :    0.272354
  22 O :   -0.225650
  23 O :   -0.233392
  24 H :    0.028710
  25 H :    0.027976
  26 H :    0.027226
  27 H :    0.025248
  28 H :    0.021411
  29 H :    0.027623
  30 H :    0.029425
  31 H :    0.029392
  32 H :    0.037488
  33 H :    0.017490
  34 H :    0.026950
  35 H :    0.025214
  36 H :    0.080194
  37 H :    0.078696

  Mayer bond orders larger than 0.100000
B(  0-C ,  1-C ) :   1.2943 B(  0-C , 13-C ) :   1.2411 B(  0-C , 16-C ) :   1.1180
B(  1-C ,  2-C ) :   1.4098 B(  1-C , 24-H ) :   0.9784 B(  2-C ,  3-C ) :   1.2563
B(  2-C , 25-H ) :   0.9881 B(  3-C ,  4-C ) :   1.1719 B(  3-C , 14-C ) :   1.2414
B(  4-C ,  5-C ) :   1.5267 B(  4-C , 26-H ) :   0.9838 B(  5-C ,  6-C ) :   1.1767
B(  5-C , 27-H ) :   0.9778 B(  6-C ,  7-C ) :   1.2436 B(  6-C , 15-C ) :   1.2332
B(  7-C ,  8-C ) :   1.2913 B(  7-C , 17-C ) :   1.1595 B(  8-C ,  9-C ) :   1.4139
B(  8-C , 28-H ) :   0.9741 B(  9-C , 10-C ) :   1.2602 B(  9-C , 29-H ) :   0.9851
B( 10-C , 11-C ) :   1.1687 B( 10-C , 15-C ) :   1.2449 B( 11-C , 12-C ) :   1.5245
B( 11-C , 30-H ) :   0.9836 B( 12-C , 13-C ) :   1.1810 B( 12-C , 31-H ) :   0.9796
B( 13-C , 14-C ) :   1.2334 B( 14-C , 15-C ) :   1.2281 B( 16-C , 18-C ) :   1.6276
B( 16-C , 32-H ) :   0.9450 B( 17-C , 19-C ) :   1.6182 B( 17-C , 33-H ) :   0.9550
B( 18-C , 21-N ) :   0.9480 B( 18-C , 34-H ) :   0.9833 B( 19-C , 20-N ) :   1.2776
B( 19-C , 35-H ) :   0.9512 B( 20-N , 36-H ) :   0.9532 B( 20-N , 37-H ) :   0.9564
B( 21-N , 22-O ) :   1.4879 B( 21-N , 23-O ) :   1.5137 B( 22-O , 23-O ) :   0.2689

FINAL SINGLE POINT ENERGY     -1029.083801275345

DIPOLE MOMENT
-------------
                                X             Y             Z
Electronic contribution:     -9.93112      14.40318      -1.48607
Nuclear contribution   :     13.05785     -18.27706       1.90540
                        -----------------------------------------
Total Dipole Moment    :      3.12674      -3.87388       0.41932
                        -----------------------------------------
Magnitude (a.u.)       :      4.99592
Magnitude (Debye)      :     12.69863

VIBRATIONAL FREQUENCIES
-----------------------

Scaling factor for frequencies =  1.000000000  (already applied!)

   0:         0.00 cm**-1
   1:         0.00 cm**-1
   2:         0.00 cm**-1
   3:         0.00 cm**-1
   4:         0.00 cm**-1
   5:         0.00 cm**-1
   6:      -219.38 cm**-1 ***imaginary mode***
   7:       -60.02 cm**-1 ***imaginary mode***
   8:        21.24 cm**-1
   9:        27.92 cm**-1
  10:        62.69 cm**-1
  11:        67.42 cm**-1
  12:       100.70 cm**-1
  13:       122.45 cm**-1
  14:       123.87 cm**-1
  15:       161.81 cm**-1
  16:       202.00 cm**-1
  17:       216.34 cm**-1
  18:       220.36 cm**-1
  19:       252.37 cm**-1
  20:       262.48 cm**-1
  21:       299.98 cm**-1
  22:       310.26 cm**-1
  23:       347.22 cm**-1
  24:       384.64 cm**-1
  25:       422.86 cm**-1
  26:       447.98 cm**-1
  27:       450.00 cm**-1
  28:       495.25 cm**-1
  29:       503.83 cm**-1
  30:       520.61 cm**-1
  31:       525.03 cm**-1
  32:       529.54 cm**-1
  33:       560.10 cm**-1
  34:       570.72 cm**-1
  35:       580.11 cm**-1
  36:       603.30 cm**-1
  37:       633.96 cm**-1
  38:       668.11 cm**-1
  39:       701.47 cm**-1
  40:       716.95 cm**-1
  41:       735.73 cm**-1
  42:       741.21 cm**-1
  43:       760.39 cm**-1
  44:       774.72 cm**-1
  45:       794.71 cm**-1
  46:       815.14 cm**-1
  47:       819.62 cm**-1
  48:       830.63 cm**-1
  49:       846.92 cm**-1
  50:       858.88 cm**-1
  51:       870.43 cm**-1
  52:       881.04 cm**-1
  53:       888.76 cm**-1
  54:       944.82 cm**-1
  55:       975.97 cm**-1
  56:       980.84 cm**-1
  57:       991.30 cm**-1
  58:       993.85 cm**-1
  59:      1000.49 cm**-1
  60:      1009.22 cm**-1
  61:      1010.36 cm**-1
  62:      1014.59 cm**-1
  63:      1017.25 cm**-1
  64:      1055.42 cm**-1
  65:      1118.65 cm**-1
  66:      1134.21 cm**-1
  67:      1181.25 cm**-1
  68:      1188.94 cm**-1
  69:      1204.01 cm**-1
  70:      1210.52 cm**-1
  71:      1234.25 cm**-1
  72:      1254.27 cm**-1
  73:      1263.39 cm**-1
  74:      1272.60 cm**-1
  75:      1279.04 cm**-1
  76:      1298.57 cm**-1
  77:      1320.12 cm**-1
  78:      1333.49 cm**-1
  79:      1335.68 cm**-1
  80:      1370.41 cm**-1
  81:      1381.52 cm**-1
  82:      1398.10 cm**-1
  83:      1405.96 cm**-1
  84:      1414.80 cm**-1
  85:      1427.12 cm**-1
  86:      1444.78 cm**-1
  87:      1469.07 cm**-1
  88:      1507.61 cm**-1
  89:      1535.23 cm**-1
  90:      1548.36 cm**-1
  91:      1571.66 cm**-1
  92:      1610.07 cm**-1
  93:      1621.37 cm**-1
  94:      1625.32 cm**-1
  95:      1644.53 cm**-1
  96:      1658.44 cm**-1
  97:      1665.53 cm**-1
  98:      1692.45 cm**-1
  99:      1710.87 cm**-1
 100:      3168.69 cm**-1
 101:      3172.67 cm**-1
 102:      3173.16 cm**-1
 103:      3175.96 cm**-1
 104:      3177.66 cm**-1
 105:      3182.06 cm**-1
 106:      3194.70 cm**-1
 107:      3197.77 cm**-1
 108:      3205.95 cm**-1
 109:      3218.42 cm**-1
 110:      3223.90 cm**-1
 111:      3253.70 cm**-1
 112:      3606.93 cm**-1
 113:      3735.59 cm**-1

IR SPECTRUM
-----------

 Mode   freq       eps      Int      T**2         TX        TY        TZ
       cm**-1   L/(mol*cm) km/mol    a.u.
----------------------------------------------------------------------------
  8:     21.24   0.000015    0.08  0.000227  (-0.000094  0.000687  0.015048)
  9:     27.92   0.000002    0.01  0.000025  (-0.000526  0.000124 -0.004952)
 10:     62.69   0.000760    3.84  0.003784  ( 0.002364 -0.004937 -0.061269)
 11:     67.42   0.000096    0.48  0.000444  (-0.005271 -0.020324  0.001815)
 12:    100.70   0.000009    0.05  0.000028  ( 0.000063  0.001190  0.005128)
 13:    122.45   0.000260    1.31  0.000662  ( 0.001586  0.005206  0.025145)
 14:    123.87   0.000778    3.93  0.001960  ( 0.020303  0.039061 -0.004650)
 15:    161.81   0.001136    5.74  0.002191  (-0.001476  0.003338  0.046663)
 16:    202.00   0.001646    8.32  0.002542  ( 0.002564 -0.004306 -0.050170)
 17:    216.34   0.000004    0.02  0.000005  (-0.002264 -0.000586  0.000112)
 18:    220.36   0.000700    3.54  0.000991  (-0.001421  0.002615  0.031337)
 19:    252.37   0.000274    1.38  0.000338  (-0.017256  0.006206 -0.001490)
 20:    262.48   0.000018    0.09  0.000021  ( 0.000291 -0.000548 -0.004571)
 21:    299.98   0.000253    1.28  0.000264  (-0.000919  0.001618  0.016132)
 22:    310.26   0.000605    3.06  0.000608  (-0.014178  0.020051 -0.002279)
 23:    347.22   0.000236    1.19  0.000212  ( 0.009468 -0.011020  0.000963)
 24:    384.64   0.000482    2.44  0.000391  ( 0.000887 -0.001721 -0.019690)
 25:    422.86   0.002791   14.10  0.002060  ( 0.025033 -0.037659  0.003846)
 26:    447.98   0.000632    3.19  0.000440  (-0.017033  0.012162 -0.001424)
 27:    450.00   0.000008    0.04  0.000006  ( 0.001144 -0.000760  0.001921)
 28:    495.25   0.000305    1.54  0.000192  ( 0.000638 -0.001122 -0.013801)
 29:    503.83   0.000578    2.92  0.000358  ( 0.005526 -0.018018  0.001616)
 30:    520.61   0.000191    0.97  0.000115  ( 0.002763 -0.010306  0.000904)
 31:    525.03   0.000002    0.01  0.000001  ( 0.000014 -0.000438 -0.001086)
 32:    529.54   0.000920    4.65  0.000542  (-0.000406  0.023218 -0.001769)
 33:    560.10   0.000382    1.93  0.000213  (-0.000590  0.001103  0.014531)
 34:    570.72   0.000692    3.50  0.000378  ( 0.001132 -0.002125 -0.019302)
 35:    580.11   0.001005    5.08  0.000540  (-0.008299  0.021590 -0.002338)
 36:    603.30   0.001622    8.20  0.000839  ( 0.014175 -0.025148  0.002375)
 37:    633.96   0.000746    3.77  0.000367  ( 0.008474 -0.017102  0.001646)
 38:    668.11   0.000025    0.12  0.000012  ( 0.000029  0.000140  0.003393)
 39:    701.47   0.000353    1.78  0.000157  (-0.009568  0.008028 -0.000971)
 40:    716.95   0.001133    5.73  0.000493  ( 0.000612 -0.001396 -0.022158)
 41:    735.73   0.000542    2.74  0.000230  (-0.015004 -0.002174 -0.000237)
 42:    741.21   0.000120    0.61  0.000051  ( 0.000140 -0.000436 -0.007093)
 43:    760.39   0.002695   13.62  0.001106  (-0.001129  0.002571  0.033140)
 44:    774.72   0.001977    9.99  0.000796  ( 0.021473 -0.018169  0.002232)
 45:    794.71   0.003703   18.71  0.001454  (-0.031319  0.021571 -0.002808)
 46:    815.14   0.000089    0.45  0.000034  (-0.000281  0.000858  0.005757)
 47:    819.62   0.003279   16.57  0.001248  ( 0.002743 -0.035117  0.002787)
 48:    830.63   0.000462    2.34  0.000174  (-0.000416  0.000915  0.013141)
 49:    846.92   0.005144   25.99  0.001895  ( 0.001615 -0.003703 -0.043348)
 50:    858.88   0.000139    0.70  0.000050  (-0.007072 -0.000580 -0.000342)
 51:    870.43   0.007282   36.80  0.002611  ( 0.001844 -0.003359 -0.050951)
 52:    881.04   0.002726   13.78  0.000966  (-0.001263  0.002752  0.030927)
 53:    888.76   0.002884   14.57  0.001013  ( 0.001262 -0.002646 -0.031685)
 54:    944.82   0.000735    3.71  0.000243  (-0.000457  0.001104  0.015532)
 55:    975.97   0.004907   24.80  0.001569  ( 0.001554 -0.003048 -0.039464)
 56:    980.84   0.022382  113.11  0.007121  (-0.042092  0.072798 -0.007059)
 57:    991.30   0.000468    2.37  0.000147  (-0.000551  0.000998  0.012089)
 58:    993.85   0.000771    3.90  0.000242  (-0.000635  0.001330  0.015491)
 59:   1000.49   0.001031    5.21  0.000322  ( 0.010499 -0.014453  0.001561)
 60:   1009.22   0.000651    3.29  0.000201  ( 0.001573 -0.002736 -0.013834)
 61:   1010.36   0.027422  138.58  0.008470  (-0.051054  0.076183 -0.007706)
 62:   1014.59   0.000926    4.68  0.000285  ( 0.000238 -0.000835 -0.016854)
 63:   1017.25   0.000778    3.93  0.000239  (-0.000018 -0.000327 -0.015442)
 64:   1055.42   0.007345   37.12  0.002172  (-0.015726  0.043688 -0.003966)
 65:   1118.65   0.000303    1.53  0.000084  ( 0.000402 -0.009150  0.000709)
 66:   1134.21   0.000127    0.64  0.000035  ( 0.005109 -0.002928  0.000402)
 67:   1181.25   0.000231    1.17  0.000061  ( 0.004794 -0.006127  0.000629)
 68:   1188.94   0.000133    0.67  0.000035  ( 0.005859 -0.000757  0.000238)
 69:   1204.01   0.006859   34.67  0.001778  ( 0.021111 -0.036325  0.003566)
 70:   1210.52   0.004302   21.74  0.001109  ( 0.033243 -0.001376  0.001407)
 71:   1234.25   0.000156    0.79  0.000040  (-0.005530 -0.002992  0.000081)
 72:   1254.27   0.131559  664.85  0.032732  ( 0.098653 -0.150874  0.015380)
 73:   1263.39   0.040606  205.21  0.010030  (-0.046393  0.088338 -0.008611)
 74:   1272.60   0.003290   16.63  0.000807  ( 0.013820 -0.024688  0.002518)
 75:   1279.04   0.030704  155.16  0.007491  ( 0.045919 -0.072991  0.007411)
 76:   1298.57   0.021657  109.44  0.005204  (-0.043910  0.056911 -0.006119)
 77:   1320.12   0.003621   18.30  0.000856  (-0.020221  0.021011 -0.002394)
 78:   1333.49   0.021102  106.64  0.004938  ( 0.028424 -0.063975  0.006128)
 79:   1335.68   0.018380   92.88  0.004294  (-0.036606  0.054065 -0.005583)
 80:   1370.41   0.003184   16.09  0.000725  (-0.009806  0.024967 -0.002343)
 81:   1381.52   0.001689    8.54  0.000382  ( 0.019340 -0.002570  0.000939)
 82:   1398.10   0.243435  1230.22  0.054336  ( 0.152796 -0.174988  0.019199)
 83:   1405.96   0.000779    3.94  0.000173  ( 0.006054 -0.011622  0.001122)
 84:   1414.80   0.008887   44.91  0.001960  (-0.035945  0.025634 -0.003324)
 85:   1427.12   0.005808   29.35  0.001270  ( 0.009333 -0.034267  0.002943)
 86:   1444.78   0.000369    1.86  0.000080  ( 0.002600 -0.008502  0.000764)
 87:   1469.07   0.003447   17.42  0.000732  ( 0.022107 -0.015478  0.002001)
 88:   1507.61   0.000508    2.57  0.000105  (-0.005680 -0.008528  0.000433)
 89:   1535.23   0.002303   11.64  0.000468  ( 0.018958 -0.010310  0.001562)
 90:   1548.36   0.012131   61.31  0.002445  ( 0.017837 -0.045922  0.004248)
 91:   1571.66   0.006920   34.97  0.001374  (-0.025764  0.026477 -0.003035)
 92:   1610.07   0.001763    8.91  0.000342  ( 0.016482  0.008365  0.000098)
 93:   1621.37   0.000047    0.24  0.000009  ( 0.000425  0.002956 -0.000280)
 94:   1625.32   0.092901  469.48  0.017837  (-0.111030  0.073637 -0.009332)
 95:   1644.53   0.080570  407.17  0.015289  ( 0.043015 -0.115403  0.010990)
 96:   1658.44   0.004085   20.64  0.000769  ( 0.027301  0.004790  0.000608)
 97:   1665.53   0.065138  329.18  0.012205  (-0.028265  0.106378 -0.009455)
 98:   1692.45   0.035647  180.14  0.006573  ( 0.008984 -0.080269  0.006996)
 99:   1710.87   0.179193  905.57  0.032685  ( 0.101359 -0.148895  0.015540)
100:   3168.69   0.000382    1.93  0.000038  ( 0.006036 -0.001035  0.000304)
101:   3172.67   0.000590    2.98  0.000058  ( 0.006521 -0.003899  0.000556)
102:   3173.16   0.004095   20.70  0.000403  ( 0.020053  0.000079  0.000775)
103:   3175.96   0.002448   12.37  0.000240  ( 0.014246 -0.006041  0.001020)
104:   3177.66   0.000967    4.89  0.000095  (-0.009596 -0.001700 -0.000222)
105:   3182.06   0.001717    8.68  0.000168  ( 0.008818 -0.009461  0.001071)
106:   3194.70   0.005495   27.77  0.000537  (-0.006617 -0.022160  0.001380)
107:   3197.77   0.002304   11.64  0.000225  ( 0.005398  0.013965 -0.000830)
108:   3205.95   0.000919    4.64  0.000089  ( 0.009030  0.002809  0.000068)
109:   3218.42   0.003472   17.55  0.000337  ( 0.018120 -0.002745  0.000875)
110:   3223.90   0.000445    2.25  0.000043  (-0.005843  0.002955 -0.000452)
111:   3253.70   0.003192   16.13  0.000306  (-0.009275  0.014756 -0.001546)
112:   3606.93   0.060388  305.18  0.005225  (-0.044573  0.056567 -0.006172)
113:   3735.59   0.015597   78.82  0.001303  (-0.003673 -0.035808  0.002686)

--------------------------
THERMOCHEMISTRY AT 298.15K
--------------------------

Temperature         ... 298.15 K
Pressure            ... 1.00 atm
Total Mass          ... 314.34 AMU

Throughout the following assumptions are being made:
  (1) The electronic state is orbitally nondegenerate
  (2) There are no thermally accessible electronically excited states
  (3) Hindered rotations indicated by low frequency modes are not
      treated as such but are treated as vibrations and this may
      cause some error
  (4) All equations used are the standard statistical mechanics
      equations for an ideal gas
  (5) All vibrations are strictly harmonic

freq.      21.24  E(vib)   ...       0.56
freq.      27.92  E(vib)   ...       0.55
freq.      62.69  E(vib)   ...       0.51
freq.      67.42  E(vib)   ...       0.50
freq.     100.70  E(vib)   ...       0.46
freq.     122.45  E(vib)   ...       0.43
freq.     123.87  E(vib)   ...       0.43
freq.     161.81  E(vib)   ...       0.39
freq.     202.00  E(vib)   ...       0.35
freq.     216.34  E(vib)   ...       0.34
freq.     220.36  E(vib)   ...       0.33
freq.     252.37  E(vib)   ...       0.30
freq.     262.48  E(vib)   ...       0.29
freq.     299.98  E(vib)   ...       0.26
freq.     310.26  E(vib)   ...       0.26
freq.     347.22  E(vib)   ...       0.23
freq.     384.64  E(vib)   ...       0.20
freq.     422.86  E(vib)   ...       0.18
freq.     447.98  E(vib)   ...       0.17
freq.     450.00  E(vib)   ...       0.17
freq.     495.25  E(vib)   ...       0.14
freq.     503.83  E(vib)   ...       0.14
freq.     520.61  E(vib)   ...       0.13
freq.     525.03  E(vib)   ...       0.13
freq.     529.54  E(vib)   ...       0.13
freq.     560.10  E(vib)   ...       0.12
freq.     570.72  E(vib)   ...       0.11
freq.     580.11  E(vib)   ...       0.11
freq.     603.30  E(vib)   ...       0.10
freq.     633.96  E(vib)   ...       0.09
freq.     668.11  E(vib)   ...       0.08
freq.     701.47  E(vib)   ...       0.07
freq.     716.95  E(vib)   ...       0.07
freq.     735.73  E(vib)   ...       0.06
freq.     741.21  E(vib)   ...       0.06
freq.     760.39  E(vib)   ...       0.06
freq.     774.72  E(vib)   ...       0.05
freq.     794.71  E(vib)   ...       0.05
freq.     815.14  E(vib)   ...       0.05
freq.     819.62  E(vib)   ...       0.05
freq.     830.63  E(vib)   ...       0.04
freq.     846.92  E(vib)   ...       0.04
freq.     858.88  E(vib)   ...       0.04
freq.     870.43  E(vib)   ...       0.04
freq.     881.04  E(vib)   ...       0.04
freq.     888.76  E(vib)   ...       0.04
freq.     944.82  E(vib)   ...       0.03
freq.     975.97  E(vib)   ...       0.03
freq.     980.84  E(vib)   ...       0.02
freq.     991.30  E(vib)   ...       0.02
freq.     993.85  E(vib)   ...       0.02
freq.    1000.49  E(vib)   ...       0.02
freq.    1009.22  E(vib)   ...       0.02
freq.    1010.36  E(vib)   ...       0.02
freq.    1014.59  E(vib)   ...       0.02
freq.    1017.25  E(vib)   ...       0.02
freq.    1055.42  E(vib)   ...       0.02
freq.    1118.65  E(vib)   ...       0.01
freq.    1134.21  E(vib)   ...       0.01
freq.    1181.25  E(vib)   ...       0.01
freq.    1188.94  E(vib)   ...       0.01
freq.    1204.01  E(vib)   ...       0.01
freq.    1210.52  E(vib)   ...       0.01
freq.    1234.25  E(vib)   ...       0.01
freq.    1254.27  E(vib)   ...       0.01
freq.    1263.39  E(vib)   ...       0.01
freq.    1272.60  E(vib)   ...       0.01
freq.    1279.04  E(vib)   ...       0.01
freq.    1298.57  E(vib)   ...       0.01
freq.    1320.12  E(vib)   ...       0.01
freq.    1333.49  E(vib)   ...       0.01
freq.    1335.68  E(vib)   ...       0.01
freq.    1370.41  E(vib)   ...       0.01
freq.    1381.52  E(vib)   ...       0.01
freq.    1398.10  E(vib)   ...       0.00
freq.    1405.96  E(vib)   ...       0.00
freq.    1414.80  E(vib)   ...       0.00
freq.    1427.12  E(vib)   ...       0.00
freq.    1444.78  E(vib)   ...       0.00
freq.    1469.07  E(vib)   ...       0.00
freq.    1507.61  E(vib)   ...       0.00
freq.    1535.23  E(vib)   ...       0.00
freq.    1548.36  E(vib)   ...       0.00
freq.    1571.66  E(vib)   ...       0.00
freq.    1610.07  E(vib)   ...       0.00
freq.    1621.37  E(vib)   ...       0.00
freq.    1625.32  E(vib)   ...       0.00
freq.    1644.53  E(vib)   ...       0.00
freq.    1658.44  E(vib)   ...       0.00
freq.    1665.53  E(vib)   ...       0.00
freq.    1692.45  E(vib)   ...       0.00
freq.    1710.87  E(vib)   ...       0.00
freq.    3168.69  E(vib)   ...       0.00
freq.    3172.67  E(vib)   ...       0.00
freq.    3173.16  E(vib)   ...       0.00
freq.    3175.96  E(vib)   ...       0.00
freq.    3177.66  E(vib)   ...       0.00
freq.    3182.06  E(vib)   ...       0.00
freq.    3194.70  E(vib)   ...       0.00
freq.    3197.77  E(vib)   ...       0.00
freq.    3205.95  E(vib)   ...       0.00
freq.    3218.42  E(vib)   ...       0.00
freq.    3223.90  E(vib)   ...       0.00
freq.    3253.70  E(vib)   ...       0.00
freq.    3606.93  E(vib)   ...       0.00
freq.    3735.59  E(vib)   ...       0.00

------------
INNER ENERGY
------------

The inner energy is: U= E(el) + E(ZPE) + E(vib) + E(rot) + E(trans)
    E(el)   - is the total energy from the electronic structure calculation
              = E(kin-el) + E(nuc-el) + E(el-el) + E(nuc-nuc)
    E(ZPE)  - the the zero temperature vibrational energy from the frequency calculation
    E(vib)  - the the finite temperature correction to E(ZPE) due to population
              of excited vibrational states
    E(rot)  - is the rotational thermal energy
    E(trans)- is the translational thermal energy

Summary of contributions to the inner energy U:
Electronic energy                ...  -1029.08380128 Eh
Zero point energy                ...      0.29330300 Eh     184.05 kcal/mol
Thermal vibrational correction   ...      0.01497368 Eh       9.40 kcal/mol
Thermal rotational correction    ...      0.00141627 Eh       0.89 kcal/mol
Thermal translational correction ...      0.00141627 Eh       0.89 kcal/mol
-----------------------------------------------------------------------
Total thermal energy                  -1028.77269205 Eh

Summary of corrections to the electronic energy:
(perhaps to be used in another calculation)
Total thermal correction                  0.01780622 Eh      11.17 kcal/mol
Non-thermal (ZPE) correction              0.29330300 Eh     184.05 kcal/mol
-----------------------------------------------------------------------
Total correction                          0.31110923 Eh     195.22 kcal/mol

--------
ENTHALPY
--------

The enthalpy is H = U + kB*T
                kB is Boltzmann's constant

Rotational constants in cm-1:     0.024981     0.003320     0.002931

                             ****ORCA TERMINATED NORMALLY****
TOTAL RUN TIME: 0 days 0 hours 31 minutes 21 seconds 11 msec
