                         Program Version 5.0.4 -  RELEASE  -
|  1> ! B3LYP def2-SVP Opt PAL8 FREQ defgrid3 slowconv VeryTightSCF
|  2> *xyz 0 1
|  3>  C        -7.120690        2.887685       -0.262849
|  4>  C        -5.862910        3.532295       -0.263909
|  5>  C        -4.678855        2.826439       -0.164887
|  6>  C        -4.685036        1.418971       -0.057830
|  7>  C        -3.473357        0.666767        0.044679
|  8>  C        -3.487416       -0.696294        0.147757
|  9>  C        -4.709912       -1.448660        0.159342
| 10>  C        -4.734515       -2.880294        0.265995
| 11>  C        -6.000584       -3.513864        0.260780
| 12>  C        -7.184864       -2.805497        0.165377
| 13>  C        -7.189180       -1.400261        0.061519
| 14>  C        -8.399614       -0.648720       -0.041763
| 15>  C        -8.393013        0.714415       -0.145385
| 16>  C        -7.165216        1.458896       -0.155180
| 17>  C        -5.932926        0.721643       -0.051910
| 18>  C        -5.939948       -0.710571        0.056848
| 19>  C        -8.345164        3.664856       -0.369540
| 20>  C        -3.505546       -3.654490        0.387350
| 21>  C        -8.460021        5.003550       -0.484459
| 22>  C        -3.415268       -5.007370        0.505425
| 23>  N        -2.255037       -5.732992        0.481461
| 24>  N        -9.770155        5.621136       -0.581003
| 25>  O        -9.777568        6.843581       -0.683953
| 26>  O       -10.773860        4.918182       -0.556103
| 27>  H        -5.820513        4.620229       -0.344609
| 28>  H        -3.722432        3.355824       -0.168896
| 29>  H        -2.522628        1.206794        0.037689
| 30>  H        -2.533008       -1.217112        0.220130
| 31>  H        -6.057717       -4.601819        0.331532
| 32>  H        -8.139038       -3.340241        0.166649
| 33>  H        -9.350343       -1.189536       -0.037347
| 34>  H        -9.346213        1.236462       -0.222011
| 35>  H        -9.302540        3.141385       -0.359368
| 36>  H        -2.560012       -3.108161        0.381834
| 37>  H        -7.665372        5.745489       -0.519667
| 38>  H        -4.313575       -5.631352        0.525299
| 39>  H        -2.295874       -6.685776        1.239805
| 40>  H        -1.368079       -5.244129        0.898368
| 41> *
| 42>
| 43>                          ****END OF INPUT****
 Total Charge           Charge          ....    0
 Multiplicity           Mult            ....    1
 Number of Electrons    NEL             ....  164
FINAL SINGLE POINT ENERGY     -1029.054744545806
FINAL SINGLE POINT ENERGY     -1029.077438487468
FINAL SINGLE POINT ENERGY     -1029.079711291893
FINAL SINGLE POINT ENERGY     -1029.082635889926
FINAL SINGLE POINT ENERGY     -1029.083194902292
FINAL SINGLE POINT ENERGY     -1029.083595169786
FINAL SINGLE POINT ENERGY     -1029.082770633628
FINAL SINGLE POINT ENERGY     -1029.083905817872
FINAL SINGLE POINT ENERGY     -1029.083996855394
FINAL SINGLE POINT ENERGY     -1029.084152353735
FINAL SINGLE POINT ENERGY     -1029.084192932292
FINAL SINGLE POINT ENERGY     -1029.084220167437
FINAL SINGLE POINT ENERGY     -1029.084234322837
FINAL SINGLE POINT ENERGY     -1029.084247447684
FINAL SINGLE POINT ENERGY     -1029.084256697019
FINAL SINGLE POINT ENERGY     -1029.084259683161
                    ***********************HURRAY********************

CARTESIAN COORDINATES (ANGSTROEM)
---------------------------------
  C     -7.117052    2.881304   -0.257469
  C     -5.858534    3.524605   -0.241928
  C     -4.675932    2.816559   -0.140109
  C     -4.683820    1.407951   -0.049515
  C     -3.473602    0.654305    0.068019
  C     -3.490069   -0.709980    0.152510
  C     -4.714488   -1.458612    0.119528
  C     -4.740156   -2.889569    0.195921
  C     -6.001779   -3.527577    0.179121
  C     -7.188978   -2.817002    0.104987
  C     -7.192125   -1.411394    0.019286
  C     -8.401963   -0.656142   -0.081376
  C     -8.392606    0.707449   -0.171978
  C     -7.163741    1.451984   -0.167622
  C     -5.933020    0.712778   -0.066061
  C     -5.942931   -0.720223    0.022427
  C     -8.340456    3.661227   -0.361740
  C     -3.508762   -3.671440    0.275617
  C     -8.453587    5.001685   -0.450852
  C     -3.417984   -4.945850    0.738051
  N     -2.293871   -5.729754    0.726620
  N     -9.763415    5.621467   -0.548313
  O     -9.769705    6.845685   -0.623828
  O    -10.766709    4.917873   -0.550840
  H     -5.814540    4.613297   -0.310505
  H     -3.719381    3.345593   -0.127896
  H     -2.523825    1.195358    0.096184
  H     -2.543025   -1.239252    0.259084
  H     -6.045658   -4.618697    0.191104
  H     -8.142801   -3.352083    0.088242
  H     -9.353613   -1.195258   -0.085599
  H     -9.344866    1.231427   -0.247206
  H     -9.297974    3.138079   -0.372130
  H     -2.583363   -3.199030   -0.065855
  H     -7.659053    5.744552   -0.461199
  H     -4.299780   -5.450666    1.146189
  H     -2.241645   -6.510766    1.368092
  H     -1.403190   -5.302423    0.498207

 Multiplicity           Mult            ....    1
 Number of Electrons    NEL             ....  164
 Basis Dimension        Dim             ....  406

ORBITAL ENERGIES
----------------

  NO   OCC          E(Eh)            E(eV)
   0   2.0000     -19.137972      -520.7707
   1   2.0000     -19.137679      -520.7627
   2   2.0000     -14.536455      -395.5570
   3   2.0000     -14.362549      -390.8248
   4   2.0000     -10.242671      -278.7172
   5   2.0000     -10.228568      -278.3335
   6   2.0000     -10.217869      -278.0423
   7   2.0000     -10.212923      -277.9078
   8   2.0000     -10.210816      -277.8504
   9   2.0000     -10.210346      -277.8376
  10   2.0000     -10.207602      -277.7630
  11   2.0000     -10.206403      -277.7303
  12   2.0000     -10.203696      -277.6567
  13   2.0000     -10.203129      -277.6413
  14   2.0000     -10.202062      -277.6122
  15   2.0000     -10.200349      -277.5656
  16   2.0000     -10.198751      -277.5221
  17   2.0000     -10.198320      -277.5104
  18   2.0000     -10.197964      -277.5007
  19   2.0000     -10.197709      -277.4938
  20   2.0000     -10.197483      -277.4876
  21   2.0000     -10.195025      -277.4207
  22   2.0000     -10.194049      -277.3942
  23   2.0000     -10.184944      -277.1464
  24   2.0000      -1.196710       -32.5641
  25   2.0000      -1.022199       -27.8155
  26   2.0000      -0.926279       -25.2053
  27   2.0000      -0.891846       -24.2684
  28   2.0000      -0.857541       -23.3349
  29   2.0000      -0.832945       -22.6656
  30   2.0000      -0.824448       -22.4344
  31   2.0000      -0.799159       -21.7462
  32   2.0000      -0.777511       -21.1571
  33   2.0000      -0.753853       -20.5134
  34   2.0000      -0.745968       -20.2988
  35   2.0000      -0.727615       -19.7994
  36   2.0000      -0.710935       -19.3455
  37   2.0000      -0.677447       -18.4343
  38   2.0000      -0.638209       -17.3666
  39   2.0000      -0.632377       -17.2079
  40   2.0000      -0.621437       -16.9102
  41   2.0000      -0.610972       -16.6254
  42   2.0000      -0.592414       -16.1204
  43   2.0000      -0.564694       -15.3661
  44   2.0000      -0.552912       -15.0455
  45   2.0000      -0.537636       -14.6298
  46   2.0000      -0.532492       -14.4899
  47   2.0000      -0.523999       -14.2587
  48   2.0000      -0.517194       -14.0736
  49   2.0000      -0.514280       -13.9943
  50   2.0000      -0.510386       -13.8883
  51   2.0000      -0.500404       -13.6167
  52   2.0000      -0.482597       -13.1321
  53   2.0000      -0.476908       -12.9773
  54   2.0000      -0.471032       -12.8174
  55   2.0000      -0.451696       -12.2913
  56   2.0000      -0.446087       -12.1386
  57   2.0000      -0.442261       -12.0345
  58   2.0000      -0.427272       -11.6267
  59   2.0000      -0.421091       -11.4585
  60   2.0000      -0.416745       -11.3402
  61   2.0000      -0.408037       -11.1033
  62   2.0000      -0.403985       -10.9930
  63   2.0000      -0.399155       -10.8615
  64   2.0000      -0.389411       -10.5964
  65   2.0000      -0.383277       -10.4295
  66   2.0000      -0.382288       -10.4026
  67   2.0000      -0.367494       -10.0000
  68   2.0000      -0.360415        -9.8074
  69   2.0000      -0.353494        -9.6190
  70   2.0000      -0.339715        -9.2441
  71   2.0000      -0.329930        -8.9778
  72   2.0000      -0.326590        -8.8870
  73   2.0000      -0.298568        -8.1244
  74   2.0000      -0.289770        -7.8851
  75   2.0000      -0.289586        -7.8800
  76   2.0000      -0.280615        -7.6359
  77   2.0000      -0.271433        -7.3861
  78   2.0000      -0.264173        -7.1885
  79   2.0000      -0.243521        -6.6266
  80   2.0000      -0.230147        -6.2626
  81   2.0000      -0.189330        -5.1519
  82   0.0000      -0.095250        -2.5919
  83   0.0000      -0.056407        -1.5349
  84   0.0000      -0.039148        -1.0653
  85   0.0000      -0.019819        -0.5393
  86   0.0000      -0.006655        -0.1811

MULLIKEN ATOMIC CHARGES
-----------------------
   0 C :    0.073476
   1 C :   -0.022416
   2 C :   -0.032115
   3 C :    0.074037
   4 C :   -0.013567
   5 C :   -0.030601
   6 C :    0.053122
   7 C :    0.087659
   8 C :   -0.046193
   9 C :   -0.023454
  10 C :    0.060550
  11 C :   -0.004280
  12 C :   -0.044569
  13 C :    0.080197
  14 C :    0.053337
  15 C :    0.067734
  16 C :    0.040349
  17 C :   -0.057691
  18 C :    0.057772
  19 C :    0.027566
  20 N :   -0.095850
  21 N :    0.232867
  22 O :   -0.265353
  23 O :   -0.261419
  24 H :   -0.024137
  25 H :   -0.030949
  26 H :   -0.033302
  27 H :   -0.035158
  28 H :   -0.032642
  29 H :   -0.031342
  30 H :   -0.029034
  31 H :   -0.027845
  32 H :    0.013717
  33 H :   -0.029587
  34 H :    0.002109
  35 H :    0.005554
  36 H :    0.125511
  37 H :    0.115948
Sum of atomic charges:   -0.0000000

LOEWDIN ATOMIC CHARGES
----------------------
   0 C :   -0.040690
   1 C :   -0.003078
   2 C :   -0.024344
   3 C :   -0.003718
   4 C :   -0.023023
   5 C :   -0.005929
   6 C :   -0.023331
   7 C :    0.002167
   8 C :   -0.030438
   9 C :   -0.008555
  10 C :   -0.029954
  11 C :   -0.003165
  12 C :   -0.028918
  13 C :    0.006256
  14 C :    0.001064
  15 C :    0.004749
  16 C :    0.025405
  17 C :   -0.116925
  18 C :   -0.031175
  19 C :    0.039152
  20 N :   -0.007000
  21 N :    0.272359
  22 O :   -0.224509
  23 O :   -0.232361
  24 H :    0.028902
  25 H :    0.028354
  26 H :    0.027623
  27 H :    0.025783
  28 H :    0.023179
  29 H :    0.027992
  30 H :    0.029832
  31 H :    0.029746
  32 H :    0.037631
  33 H :    0.018886
  34 H :    0.027249
  35 H :    0.025687
  36 H :    0.078463
  37 H :    0.076633

  Mayer bond orders larger than 0.100000
B(  0-C ,  1-C ) :   1.2940 B(  0-C , 13-C ) :   1.2441 B(  0-C , 16-C ) :   1.1163
B(  1-C ,  2-C ) :   1.4104 B(  1-C , 24-H ) :   0.9786 B(  2-C ,  3-C ) :   1.2571
B(  2-C , 25-H ) :   0.9879 B(  3-C ,  4-C ) :   1.1706 B(  3-C , 14-C ) :   1.2411
B(  4-C ,  5-C ) :   1.5235 B(  4-C , 26-H ) :   0.9845 B(  5-C ,  6-C ) :   1.1776
B(  5-C , 27-H ) :   0.9755 B(  6-C ,  7-C ) :   1.2559 B(  6-C , 15-C ) :   1.2309
B(  7-C ,  8-C ) :   1.3098 B(  7-C , 17-C ) :   1.1279 B(  8-C ,  9-C ) :   1.3921
B(  8-C , 28-H ) :   0.9754 B(  9-C , 10-C ) :   1.2704 B(  9-C , 29-H ) :   0.9863
B( 10-C , 11-C ) :   1.1639 B( 10-C , 15-C ) :   1.2424 B( 11-C , 12-C ) :   1.5303
B( 11-C , 30-H ) :   0.9834 B( 12-C , 13-C ) :   1.1777 B( 12-C , 31-H ) :   0.9795
B( 13-C , 14-C ) :   1.2339 B( 14-C , 15-C ) :   1.2289 B( 16-C , 18-C ) :   1.6303
B( 16-C , 32-H ) :   0.9448 B( 17-C , 19-C ) :   1.6565 B( 17-C , 33-H ) :   0.9471
B( 18-C , 21-N ) :   0.9463 B( 18-C , 34-H ) :   0.9833 B( 19-C , 20-N ) :   1.2534
B( 19-C , 35-H ) :   0.9536 B( 20-N , 36-H ) :   0.9534 B( 20-N , 37-H ) :   0.9579
B( 21-N , 22-O ) :   1.4889 B( 21-N , 23-O ) :   1.5146 B( 22-O , 23-O ) :   0.2697

FINAL SINGLE POINT ENERGY     -1029.084260593512

DIPOLE MOMENT
-------------
                                X             Y             Z
Electronic contribution:    -10.05610      14.56443      -1.79551
Nuclear contribution   :     13.06040     -18.04999       2.49459
                        -----------------------------------------
Total Dipole Moment    :      3.00431      -3.48556       0.69908
                        -----------------------------------------
Magnitude (a.u.)       :      4.65443
Magnitude (Debye)      :     11.83062

VIBRATIONAL FREQUENCIES
-----------------------

Scaling factor for frequencies =  1.000000000  (already applied!)

   0:         0.00 cm**-1
   1:         0.00 cm**-1
   2:         0.00 cm**-1
   3:         0.00 cm**-1
   4:         0.00 cm**-1
   5:         0.00 cm**-1
   6:        21.68 cm**-1
   7:        29.49 cm**-1
   8:        57.65 cm**-1
   9:        66.44 cm**-1
  10:        95.43 cm**-1
  11:       100.80 cm**-1
  12:       119.09 cm**-1
  13:       123.44 cm**-1
  14:       165.12 cm**-1
  15:       206.88 cm**-1
  16:       215.63 cm**-1
  17:       221.82 cm**-1
  18:       252.28 cm**-1
  19:       265.69 cm**-1
  20:       301.77 cm**-1
  21:       307.66 cm**-1
  22:       343.13 cm**-1
  23:       369.64 cm**-1
  24:       384.51 cm**-1
  25:       422.04 cm**-1
  26:       448.58 cm**-1
  27:       454.84 cm**-1
  28:       498.95 cm**-1
  29:       504.17 cm**-1
  30:       521.95 cm**-1
  31:       526.25 cm**-1
  32:       530.90 cm**-1
  33:       561.10 cm**-1
  34:       570.34 cm**-1
  35:       579.69 cm**-1
  36:       603.02 cm**-1
  37:       632.77 cm**-1
  38:       666.89 cm**-1
  39:       701.15 cm**-1
  40:       718.04 cm**-1
  41:       734.25 cm**-1
  42:       742.20 cm**-1
  43:       761.94 cm**-1
  44:       775.12 cm**-1
  45:       794.82 cm**-1
  46:       817.92 cm**-1
  47:       819.77 cm**-1
  48:       831.20 cm**-1
  49:       846.25 cm**-1
  50:       858.29 cm**-1
  51:       870.60 cm**-1
  52:       883.07 cm**-1
  53:       887.16 cm**-1
  54:       942.48 cm**-1
  55:       971.79 cm**-1
  56:       985.32 cm**-1
  57:       993.24 cm**-1
  58:       994.69 cm**-1
  59:       999.82 cm**-1
  60:      1010.18 cm**-1
  61:      1010.71 cm**-1
  62:      1015.36 cm**-1
  63:      1017.61 cm**-1
  64:      1070.46 cm**-1
  65:      1119.56 cm**-1
  66:      1133.32 cm**-1
  67:      1179.08 cm**-1
  68:      1186.99 cm**-1
  69:      1201.45 cm**-1
  70:      1209.29 cm**-1
  71:      1233.54 cm**-1
  72:      1251.01 cm**-1
  73:      1263.01 cm**-1
  74:      1270.59 cm**-1
  75:      1278.41 cm**-1
  76:      1292.43 cm**-1
  77:      1320.00 cm**-1
  78:      1328.03 cm**-1
  79:      1332.28 cm**-1
  80:      1369.94 cm**-1
  81:      1377.48 cm**-1
  82:      1398.21 cm**-1
  83:      1406.03 cm**-1
  84:      1413.24 cm**-1
  85:      1426.23 cm**-1
  86:      1442.77 cm**-1
  87:      1467.53 cm**-1
  88:      1505.79 cm**-1
  89:      1534.62 cm**-1
  90:      1547.06 cm**-1
  91:      1571.29 cm**-1
  92:      1613.29 cm**-1
  93:      1621.56 cm**-1
  94:      1626.69 cm**-1
  95:      1643.99 cm**-1
  96:      1657.97 cm**-1
  97:      1666.29 cm**-1
  98:      1693.20 cm**-1
  99:      1711.53 cm**-1
 100:      3161.33 cm**-1
 101:      3168.85 cm**-1
 102:      3172.02 cm**-1
 103:      3174.22 cm**-1
 104:      3174.41 cm**-1
 105:      3177.74 cm**-1
 106:      3192.74 cm**-1
 107:      3198.44 cm**-1
 108:      3205.66 cm**-1
 109:      3214.08 cm**-1
 110:      3223.59 cm**-1
 111:      3254.02 cm**-1
 112:      3574.83 cm**-1
 113:      3691.50 cm**-1

IR SPECTRUM
-----------

 Mode   freq       eps      Int      T**2         TX        TY        TZ
       cm**-1   L/(mol*cm) km/mol    a.u.
----------------------------------------------------------------------------
  6:     21.68   0.000021    0.10  0.000297  ( 0.006139 -0.014051 -0.007862)
  7:     29.49   0.000023    0.12  0.000247  ( 0.006748 -0.011830  0.007826)
  8:     57.65   0.000850    4.30  0.004601  (-0.011417  0.045172  0.049300)
  9:     66.44   0.000036    0.18  0.000169  ( 0.008312  0.009996  0.000482)
 10:     95.43   0.002215   11.19  0.007242  (-0.000906 -0.083149  0.018083)
 11:    100.80   0.000102    0.51  0.000315  (-0.010171  0.009453 -0.011052)
 12:    119.09   0.000286    1.45  0.000749  (-0.011696 -0.013156 -0.020964)
 13:    123.44   0.000292    1.48  0.000738  (-0.006398  0.013247  0.022845)
 14:    165.12   0.000930    4.70  0.001758  ( 0.003240 -0.031345  0.027663)
 15:    206.88   0.001287    6.50  0.001942  (-0.005758  0.036365 -0.024208)
 16:    215.63   0.000089    0.45  0.000129  (-0.001027  0.007580  0.008378)
 17:    221.82   0.001041    5.26  0.001464  ( 0.003253 -0.014668  0.035186)
 18:    252.28   0.000840    4.25  0.001039  (-0.023987  0.021390  0.002501)
 19:    265.69   0.000205    1.03  0.000240  (-0.005783  0.013619  0.004639)
 20:    301.77   0.003183   16.09  0.003292  (-0.017461  0.054374  0.005523)
 21:    307.66   0.003444   17.41  0.003493  (-0.025394  0.051995  0.012045)
 22:    343.13   0.021822  110.28  0.019846  (-0.041960  0.126527  0.045571)
 23:    369.64   0.074843  378.23  0.063186  (-0.083595  0.225350  0.073588)
 24:    384.51   0.006191   31.29  0.005025  ( 0.023281 -0.057417 -0.034438)
 25:    422.04   0.002154   10.89  0.001593  (-0.023627  0.031925 -0.003932)
 26:    448.58   0.003973   20.08  0.002764  (-0.026641  0.043513  0.012669)
 27:    454.84   0.001556    7.86  0.001068  ( 0.019547 -0.026172 -0.000732)
 28:    498.95   0.016541   83.59  0.010346  ( 0.050339 -0.078539 -0.040537)
 29:    504.17   0.001556    7.87  0.000963  (-0.017054  0.017265  0.019349)
 30:    521.95   0.000486    2.46  0.000291  (-0.005949  0.015469  0.004002)
 31:    526.25   0.000098    0.49  0.000058  ( 0.000226  0.006709 -0.003592)
 32:    530.90   0.000729    3.69  0.000429  (-0.002638 -0.019836  0.005312)
 33:    561.10   0.000817    4.13  0.000454  (-0.003232  0.003277  0.020815)
 34:    570.34   0.001070    5.41  0.000585  ( 0.007616 -0.010452 -0.020445)
 35:    579.69   0.000960    4.85  0.000517  (-0.007727  0.021281 -0.002075)
 36:    603.02   0.000948    4.79  0.000490  (-0.010273  0.019526 -0.001901)
 37:    632.77   0.000259    1.31  0.000128  (-0.004135  0.010419 -0.001419)
 38:    666.89   0.000204    1.03  0.000095  (-0.005917  0.007371 -0.002435)
 39:    701.15   0.000191    0.96  0.000085  (-0.007930  0.004521 -0.001245)
 40:    718.04   0.001232    6.22  0.000535  ( 0.004841 -0.005808 -0.021866)
 41:    734.25   0.000585    2.96  0.000249  (-0.014860  0.000537 -0.005258)
 42:    742.20   0.000143    0.72  0.000060  ( 0.006897  0.000056 -0.003519)
 43:    761.94   0.002765   13.97  0.001132  (-0.005239  0.002870  0.033118)
 44:    775.12   0.001804    9.12  0.000726  (-0.020729  0.016645 -0.004429)
 45:    794.82   0.003526   17.82  0.001385  (-0.030347  0.021350 -0.002781)
 46:    817.92   0.000326    1.65  0.000124  ( 0.001306  0.006123  0.009229)
 47:    819.77   0.003295   16.65  0.001254  ( 0.002199 -0.035249  0.002669)
 48:    831.20   0.000165    0.83  0.000062  ( 0.004368  0.003255 -0.005673)
 49:    846.25   0.006602   33.36  0.002434  (-0.004888 -0.001181 -0.049083)
 50:    858.29   0.000558    2.82  0.000203  (-0.011242  0.000833 -0.008710)
 51:    870.60   0.003703   18.71  0.001327  (-0.003233  0.003923 -0.036076)
 52:    883.07   0.001017    5.14  0.000359  ( 0.006763 -0.007628  0.015979)
 53:    887.16   0.007946   40.16  0.002795  (-0.007908  0.008783  0.051532)
 54:    942.48   0.000661    3.34  0.000219  ( 0.002853 -0.003767  0.014017)
 55:    971.79   0.017480   88.33  0.005613  (-0.038075  0.046064 -0.045183)
 56:    985.32   0.012082   61.06  0.003827  ( 0.029825 -0.053449 -0.008963)
 57:    993.24   0.001365    6.90  0.000429  (-0.006476  0.014034  0.013787)
 58:    994.69   0.001056    5.33  0.000331  (-0.006842  0.013285 -0.010386)
 59:    999.82   0.001182    5.97  0.000369  ( 0.011705 -0.014757  0.003752)
 60:   1010.18   0.021750  109.92  0.006719  ( 0.045598 -0.068099  0.001530)
 61:   1010.71   0.005119   25.87  0.001581  (-0.018682  0.028451 -0.020544)
 62:   1015.36   0.000885    4.47  0.000272  (-0.002142  0.002189 -0.016202)
 63:   1017.61   0.000649    3.28  0.000199  ( 0.003338 -0.004534 -0.012933)
 64:   1070.46   0.004450   22.49  0.001297  (-0.012473  0.033760 -0.001433)
 65:   1119.56   0.000330    1.67  0.000092  ( 0.000487 -0.009561  0.000569)
 66:   1133.32   0.000143    0.72  0.000039  ( 0.004991 -0.003682  0.001007)
 67:   1179.08   0.000501    2.53  0.000133  ( 0.004975 -0.010206  0.001941)
 68:   1186.99   0.000080    0.40  0.000021  ( 0.004433  0.001067 -0.000439)
 69:   1201.45   0.003737   18.88  0.000971  ( 0.008560 -0.029869  0.002258)
 70:   1209.29   0.005636   28.48  0.001454  ( 0.037025 -0.008708  0.002766)
 71:   1233.54   0.000170    0.86  0.000043  (-0.004971 -0.004261  0.000439)
 72:   1251.01   0.092978  469.87  0.023193  (-0.083126  0.126661 -0.015508)
 73:   1263.01   0.047461  239.85  0.011727  (-0.051386  0.094873 -0.009237)
 74:   1270.59   0.000698    3.53  0.000171  ( 0.004158 -0.012196  0.002308)
 75:   1278.41   0.026579  134.32  0.006488  ( 0.042156 -0.068377  0.005956)
 76:   1292.43   0.022147  111.92  0.005347  (-0.042319  0.058918 -0.009232)
 77:   1320.00   0.007710   38.96  0.001823  (-0.026901  0.032896 -0.004113)
 78:   1328.03   0.013668   69.07  0.003212  (-0.024905  0.049989 -0.009622)
 79:   1332.28   0.002804   14.17  0.000657  ( 0.002933 -0.025075  0.004404)
 80:   1369.94   0.001846    9.33  0.000421  ( 0.005848 -0.019604  0.001450)
 81:   1377.48   0.003969   20.06  0.000899  ( 0.026074 -0.014650  0.002187)
 82:   1398.21   0.225545  1139.81  0.050339  ( 0.146464 -0.168967  0.018364)
 83:   1406.03   0.000825    4.17  0.000183  (-0.012116  0.005961 -0.000928)
 84:   1413.24   0.016146   81.60  0.003565  ( 0.044628 -0.039362  0.004930)
 85:   1426.23   0.005052   25.53  0.001105  ( 0.007222 -0.032311  0.003053)
 86:   1442.77   0.000198    1.00  0.000043  ( 0.002169 -0.006088  0.001065)
 87:   1467.53   0.003475   17.56  0.000739  ( 0.021725 -0.016231  0.001900)
 88:   1505.79   0.000415    2.10  0.000086  (-0.006218 -0.006862  0.000442)
 89:   1534.62   0.002443   12.35  0.000497  (-0.019177  0.011094 -0.002447)
 90:   1547.06   0.008502   42.96  0.001715  (-0.013540  0.038956 -0.003745)
 91:   1571.29   0.006317   31.92  0.001255  ( 0.024248 -0.025599  0.003370)
 92:   1613.29   0.002744   13.87  0.000531  (-0.010791 -0.019923 -0.004180)
 93:   1621.56   0.000077    0.39  0.000015  ( 0.001848 -0.001207  0.003149)
 94:   1626.69   0.077251  390.39  0.014820  (-0.104614  0.061160 -0.011623)
 95:   1643.99   0.051159  258.54  0.009711  ( 0.032163 -0.092556  0.010493)
 96:   1657.97   0.004246   21.46  0.000799  ( 0.021832  0.017936  0.000931)
 97:   1666.29   0.060254  304.50  0.011284  ( 0.027733 -0.102039  0.010154)
 98:   1693.20   0.038806  196.11  0.007152  ( 0.010631 -0.083730  0.005326)
 99:   1711.53   0.145747  736.55  0.026574  ( 0.091999 -0.132667  0.022572)
100:   3161.33   0.003871   19.56  0.000382  ( 0.015593 -0.011786  0.000195)
101:   3168.85   0.002844   14.37  0.000280  ( 0.016036 -0.004417 -0.001848)
102:   3172.02   0.001091    5.51  0.000107  (-0.010052  0.000150  0.002509)
103:   3174.22   0.000922    4.66  0.000091  (-0.009387  0.001378 -0.000786)
104:   3174.41   0.000879    4.44  0.000086  ( 0.008486  0.003375  0.001737)
105:   3177.74   0.001666    8.42  0.000164  ( 0.012718  0.001021  0.000902)
106:   3192.74   0.004321   21.84  0.000422  (-0.005400 -0.019799  0.001073)
107:   3198.44   0.002309   11.67  0.000225  (-0.005287 -0.014028  0.000739)
108:   3205.66   0.000951    4.81  0.000093  (-0.009212 -0.002765 -0.000251)
109:   3214.08   0.002742   13.86  0.000266  (-0.016172  0.002126 -0.000409)
110:   3223.59   0.000441    2.23  0.000043  ( 0.005829 -0.002918  0.000465)
111:   3254.02   0.003239   16.37  0.000311  ( 0.009216 -0.014957  0.001423)
112:   3574.83   0.033437  168.98  0.002919  ( 0.034229 -0.040099  0.011803)
113:   3691.50   0.008475   42.83  0.000716  ( 0.004728  0.022490 -0.013720)

--------------------------
THERMOCHEMISTRY AT 298.15K
--------------------------

Temperature         ... 298.15 K
Pressure            ... 1.00 atm
Total Mass          ... 314.34 AMU

Throughout the following assumptions are being made:
  (1) The electronic state is orbitally nondegenerate
  (2) There are no thermally accessible electronically excited states
  (3) Hindered rotations indicated by low frequency modes are not
      treated as such but are treated as vibrations and this may
      cause some error
  (4) All equations used are the standard statistical mechanics
      equations for an ideal gas
  (5) All vibrations are strictly harmonic

freq.      21.68  E(vib)   ...       0.56
freq.      29.49  E(vib)   ...       0.55
freq.      57.65  E(vib)   ...       0.51
freq.      66.44  E(vib)   ...       0.50
freq.      95.43  E(vib)   ...       0.47
freq.     100.80  E(vib)   ...       0.46
freq.     119.09  E(vib)   ...       0.44
freq.     123.44  E(vib)   ...       0.43
freq.     165.12  E(vib)   ...       0.39
freq.     206.88  E(vib)   ...       0.35
freq.     215.63  E(vib)   ...       0.34
freq.     221.82  E(vib)   ...       0.33
freq.     252.28  E(vib)   ...       0.30
freq.     265.69  E(vib)   ...       0.29
freq.     301.77  E(vib)   ...       0.26
freq.     307.66  E(vib)   ...       0.26
freq.     343.13  E(vib)   ...       0.23
freq.     369.64  E(vib)   ...       0.21
freq.     384.51  E(vib)   ...       0.20
freq.     422.04  E(vib)   ...       0.18
freq.     448.58  E(vib)   ...       0.17
freq.     454.84  E(vib)   ...       0.16
freq.     498.95  E(vib)   ...       0.14
freq.     504.17  E(vib)   ...       0.14
freq.     521.95  E(vib)   ...       0.13
freq.     526.25  E(vib)   ...       0.13
freq.     530.90  E(vib)   ...       0.13
freq.     561.10  E(vib)   ...       0.11
freq.     570.34  E(vib)   ...       0.11
freq.     579.69  E(vib)   ...       0.11
freq.     603.02  E(vib)   ...       0.10
freq.     632.77  E(vib)   ...       0.09
freq.     666.89  E(vib)   ...       0.08
freq.     701.15  E(vib)   ...       0.07
freq.     718.04  E(vib)   ...       0.07
freq.     734.25  E(vib)   ...       0.06
freq.     742.20  E(vib)   ...       0.06
freq.     761.94  E(vib)   ...       0.06
freq.     775.12  E(vib)   ...       0.05
freq.     794.82  E(vib)   ...       0.05
freq.     817.92  E(vib)   ...       0.05
freq.     819.77  E(vib)   ...       0.05
freq.     831.20  E(vib)   ...       0.04
freq.     846.25  E(vib)   ...       0.04
freq.     858.29  E(vib)   ...       0.04
freq.     870.60  E(vib)   ...       0.04
freq.     883.07  E(vib)   ...       0.04
freq.     887.16  E(vib)   ...       0.04
freq.     942.48  E(vib)   ...       0.03
freq.     971.79  E(vib)   ...       0.03
freq.     985.32  E(vib)   ...       0.02
freq.     993.24  E(vib)   ...       0.02
freq.     994.69  E(vib)   ...       0.02
freq.     999.82  E(vib)   ...       0.02
freq.    1010.18  E(vib)   ...       0.02
freq.    1010.71  E(vib)   ...       0.02
freq.    1015.36  E(vib)   ...       0.02
freq.    1017.61  E(vib)   ...       0.02
freq.    1070.46  E(vib)   ...       0.02
freq.    1119.56  E(vib)   ...       0.01
freq.    1133.32  E(vib)   ...       0.01
freq.    1179.08  E(vib)   ...       0.01
freq.    1186.99  E(vib)   ...       0.01
freq.    1201.45  E(vib)   ...       0.01
freq.    1209.29  E(vib)   ...       0.01
freq.    1233.54  E(vib)   ...       0.01
freq.    1251.01  E(vib)   ...       0.01
freq.    1263.01  E(vib)   ...       0.01
freq.    1270.59  E(vib)   ...       0.01
freq.    1278.41  E(vib)   ...       0.01
freq.    1292.43  E(vib)   ...       0.01
freq.    1320.00  E(vib)   ...       0.01
freq.    1328.03  E(vib)   ...       0.01
freq.    1332.28  E(vib)   ...       0.01
freq.    1369.94  E(vib)   ...       0.01
freq.    1377.48  E(vib)   ...       0.01
freq.    1398.21  E(vib)   ...       0.00
freq.    1406.03  E(vib)   ...       0.00
freq.    1413.24  E(vib)   ...       0.00
freq.    1426.23  E(vib)   ...       0.00
freq.    1442.77  E(vib)   ...       0.00
freq.    1467.53  E(vib)   ...       0.00
freq.    1505.79  E(vib)   ...       0.00
freq.    1534.62  E(vib)   ...       0.00
freq.    1547.06  E(vib)   ...       0.00
freq.    1571.29  E(vib)   ...       0.00
freq.    1613.29  E(vib)   ...       0.00
freq.    1621.56  E(vib)   ...       0.00
freq.    1626.69  E(vib)   ...       0.00
freq.    1643.99  E(vib)   ...       0.00
freq.    1657.97  E(vib)   ...       0.00
freq.    1666.29  E(vib)   ...       0.00
freq.    1693.20  E(vib)   ...       0.00
freq.    1711.53  E(vib)   ...       0.00
freq.    3161.33  E(vib)   ...       0.00
freq.    3168.85  E(vib)   ...       0.00
freq.    3172.02  E(vib)   ...       0.00
freq.    3174.22  E(vib)   ...       0.00
freq.    3174.41  E(vib)   ...       0.00
freq.    3177.74  E(vib)   ...       0.00
freq.    3192.74  E(vib)   ...       0.00
freq.    3198.44  E(vib)   ...       0.00
freq.    3205.66  E(vib)   ...       0.00
freq.    3214.08  E(vib)   ...       0.00
freq.    3223.59  E(vib)   ...       0.00
freq.    3254.02  E(vib)   ...       0.00
freq.    3574.83  E(vib)   ...       0.00
freq.    3691.50  E(vib)   ...       0.00

------------
INNER ENERGY
------------

The inner energy is: U= E(el) + E(ZPE) + E(vib) + E(rot) + E(trans)
    E(el)   - is the total energy from the electronic structure calculation
              = E(kin-el) + E(nuc-el) + E(el-el) + E(nuc-nuc)
    E(ZPE)  - the the zero temperature vibrational energy from the frequency calculation
    E(vib)  - the the finite temperature correction to E(ZPE) due to population
              of excited vibrational states
    E(rot)  - is the rotational thermal energy
    E(trans)- is the translational thermal energy

Summary of contributions to the inner energy U:
Electronic energy                ...  -1029.08426059 Eh
Zero point energy                ...      0.29411186 Eh     184.56 kcal/mol
Thermal vibrational correction   ...      0.01604908 Eh      10.07 kcal/mol
Thermal rotational correction    ...      0.00141627 Eh       0.89 kcal/mol
Thermal translational correction ...      0.00141627 Eh       0.89 kcal/mol
-----------------------------------------------------------------------
Total thermal energy                  -1028.77126711 Eh

Summary of corrections to the electronic energy:
(perhaps to be used in another calculation)
Total thermal correction                  0.01888162 Eh      11.85 kcal/mol
Non-thermal (ZPE) correction              0.29411186 Eh     184.56 kcal/mol
-----------------------------------------------------------------------
Total correction                          0.31299348 Eh     196.41 kcal/mol

--------
ENTHALPY
--------

Rotational constants in cm-1:     0.024911     0.003327     0.002938

                             ****ORCA TERMINATED NORMALLY****
TOTAL RUN TIME: 0 days 1 hours 28 minutes 55 seconds 931 msec
