 Gaussian 16, Revision C.01,
 Gaussian 16:  ES64L-G16RevC.01  3-Jul-2019

 ----------------------
 #P m062x/cc-pvdz polar
 ----------------------

 --
 p1
 --
 Symbolic Z-matrix:
 Charge =  0 Multiplicity = 1

                         Standard orientation:
 ---------------------------------------------------------------------
 Center     Atomic      Atomic             Coordinates (Angstroms)
 Number     Number       Type             X           Y           Z
 ---------------------------------------------------------------------
      1          6           0        3.186529    0.523838    0.027045
      2          6           0        3.072340    1.932403    0.065572
      3          6           0        1.845028    2.567512    0.060567
      4          6           0        0.646930    1.822125    0.013312
      5          6           0       -0.635032    2.456289    0.020043
      6          6           0       -1.790342    1.726656   -0.028861
      7          6           0       -1.781695    0.293348   -0.098892
      8          6           0       -2.989228   -0.477834   -0.164426
      9          6           0       -2.867458   -1.886534   -0.203118
     10          6           0       -1.638227   -2.524829   -0.168042
     11          6           0       -0.437333   -1.790936   -0.115011
     12          6           0        0.843977   -2.424434   -0.102767
     13          6           0        2.003208   -1.701489   -0.059673
     14          6           0        1.991362   -0.265400   -0.021439
     15          6           0        0.712227    0.394544   -0.031784
     16          6           0       -0.505170   -0.365007   -0.083889
     17          6           0        4.496179   -0.108100    0.038012
     18          6           0       -4.300526    0.162648   -0.204065
     19          6           0        5.700123    0.498002    0.074862
     20          6           0       -5.468185   -0.448115    0.149918
     21          7           0       -6.734034    0.060314    0.038092
     22          6           0       -7.811491   -0.515310    0.819645
     23          6           0       -6.938417    1.389263   -0.496129
     24          7           0        6.918168   -0.292355    0.081096
     25          8           0        7.966578    0.343773    0.112615
     26          8           0        6.846035   -1.515511    0.055479
     27          1           0        3.978330    2.540458    0.102904
     28          1           0        1.792118    3.658870    0.094819
     29          1           0       -0.676120    3.547662    0.073481
     30          1           0       -2.743987    2.254217   -0.000398
     31          1           0       -3.769090   -2.494981   -0.300353
     32          1           0       -1.591443   -3.616956   -0.207426
     33          1           0        0.885147   -3.517115   -0.129538
     34          1           0        2.951737   -2.237452   -0.053129
     35          1           0        4.554204   -1.197495    0.014611
     36          1           0       -4.339547    1.201062   -0.533094
     37          1           0        5.916125    1.563767    0.101827
     38          1           0       -5.443816   -1.457234    0.573733
     39          1           0       -7.594477   -1.572200    1.034085
     40          1           0       -7.961841    0.003087    1.788376
     41          1           0       -8.760235   -0.468217    0.259999
     42          1           0       -8.007584    1.542376   -0.703451
     43          1           0       -6.604051    2.185653    0.199732
     44          1           0       -6.384103    1.510851   -1.440521
 ---------------------------------------------------------------------

 SCF Done:  E(RM062X) =  -1108.69786710     A.U. after   17 cycles

 The electronic state is 1-A.
 Alpha  occ. eigenvalues --  -19.65031 -19.64928 -14.98629 -14.80152 -10.60410
 Alpha  occ. eigenvalues --  -10.60242 -10.60035 -10.59825 -10.58890 -10.58142
 Alpha  occ. eigenvalues --  -10.57834 -10.57746 -10.57492 -10.57367 -10.57063
 Alpha  occ. eigenvalues --  -10.56959 -10.56895 -10.56589 -10.56543 -10.56423
 Alpha  occ. eigenvalues --  -10.56395 -10.56359 -10.56268 -10.56119 -10.55892
 Alpha  occ. eigenvalues --  -10.54695  -1.34287  -1.15683  -1.07768  -1.00605
 Alpha  occ. eigenvalues --   -0.96973  -0.94378  -0.93582  -0.90819  -0.88552
 Alpha  occ. eigenvalues --   -0.86472  -0.84933  -0.83518  -0.83109  -0.82266
 Alpha  occ. eigenvalues --   -0.78119  -0.75873  -0.72278  -0.71079  -0.70877
 Alpha  occ. eigenvalues --   -0.69009  -0.65728  -0.65331  -0.62481  -0.61478
 Alpha  occ. eigenvalues --   -0.60475  -0.60198  -0.59733  -0.58997  -0.58206
 Alpha  occ. eigenvalues --   -0.57527  -0.56082  -0.55494  -0.55010  -0.53399
 Alpha  occ. eigenvalues --   -0.51972  -0.51133  -0.50314  -0.49362  -0.49075
 Alpha  occ. eigenvalues --   -0.48239  -0.47864  -0.47592  -0.46728  -0.46595
 Alpha  occ. eigenvalues --   -0.46137  -0.45794  -0.44956  -0.44292  -0.43819
 Alpha  occ. eigenvalues --   -0.41859  -0.41469  -0.40361  -0.39056  -0.37889
 Alpha  occ. eigenvalues --   -0.37766  -0.36910  -0.35621  -0.35548  -0.35416
 Alpha  occ. eigenvalues --   -0.32926  -0.31544  -0.28817  -0.27094  -0.22379
 Alpha virt. eigenvalues --   -0.06883  -0.02388  -0.00851   0.01627   0.03177
 Alpha virt. eigenvalues --    0.06473   0.07322   0.07895   0.09258   0.10180
 Alpha virt. eigenvalues --    0.10505   0.11642   0.12428   0.12539   0.12869

 Mulliken charges:
               1
     1  C   -0.029487
     2  C    0.003177
     3  C    0.018135
     4  C   -0.020905
     5  C    0.040025
     6  C   -0.004702
     7  C   -0.026525
     8  C    0.012063
     9  C   -0.021161
    10  C    0.022799
    11  C   -0.032766
    12  C    0.053884
    13  C   -0.026575
    14  C    0.006021
    15  C    0.025928
    16  C    0.031625
    17  C    0.054570
    18  C   -0.123510
    19  C    0.070429
    20  C    0.148245
    21  N   -0.308409
    22  C    0.021854
    23  C    0.025677
    24  N    0.221799
    25  O   -0.267090
    26  O   -0.273474
    27  H   -0.000140
    28  H   -0.009066
    29  H   -0.012599
    30  H   -0.007173
    31  H   -0.010031
    32  H   -0.009389
    33  H   -0.008524
    34  H    0.004363
    35  H    0.039736
    36  H    0.001638
    37  H    0.029996
    38  H    0.027904
    39  H    0.057198
    40  H    0.052131
    41  H    0.053606
    42  H    0.052562
    43  H    0.048071
    44  H    0.068092
 Sum of Mulliken charges =  -0.00000

 Dipole moment (field-independent basis, Debye):
    X=            -11.5414    Y=              1.6857    Z=              0.3371  Tot=             11.6688
 Quadrupole moment (field-independent basis, Debye-Ang):
   XX=           -158.2403   YY=           -134.6494   ZZ=           -156.9828
   XY=              8.8309   XZ=             -3.4496   YZ=             -1.2362

  Exact polarizability:     682.694      27.775     282.380      -2.214       1.203     102.277
 Approx polarizability:     735.254      54.727     425.413       2.821       3.626     148.504

 Normal termination of Gaussian 16 at Fri Aug 15 11:02:48 2025.
