                         Program Version 5.0.4 -  RELEASE  -
|  1> ! B3LYP def2-SVP Opt PAL8 FREQ defgrid3 slowconv VeryTightSCF
|  2> *xyz 0 1
|  3>   C      -1.787433      3.717463     -0.063191
|  4>   C      -0.529691      4.361386     -0.025939
|  5>   C       0.655084      3.651330      0.016014
|  6>   C       0.649835      2.239631      0.022619
|  7>   C       1.862240      1.483132      0.070896
|  8>   C       1.849320      0.116175      0.075661
|  9>   C       0.627694     -0.636333      0.030067
| 10>   C       0.605150     -2.072624      0.030315
| 11>   C      -0.661685     -2.704458      0.001341
| 12>   C      -1.846991     -1.992121     -0.032743
| 13>   C      -1.852374     -0.582980     -0.041878
| 14>   C      -3.063884      0.172983     -0.082290
| 15>   C      -3.058619      1.540034     -0.090558
| 16>   C      -1.831050      2.284528     -0.057904
| 17>   C      -0.597677      1.542711     -0.015702
| 18>   C      -0.603225      0.106242     -0.009686
| 19>   C      -3.012094      4.500751     -0.106288
| 20>   C       1.839217     -2.849758      0.048881
| 21>   C      -3.126773      5.844306     -0.091090
| 22>   C       1.921282     -4.209556      0.138200
| 23>   N       3.062550     -4.959961      0.212785
| 24>   C       3.005978     -6.390811     -0.015448
| 25>   C       4.360763     -4.323826      0.147598
| 26>   N      -4.435596      6.469575     -0.140948
| 27>   O      -4.442056      7.696132     -0.113648
| 28>   O      -5.439379      5.769181     -0.205860
| 29>   H      -0.487919      5.452329     -0.032074
| 30>   H       1.611317      4.180291      0.044305
| 31>   H       2.812103      2.023459      0.107814
| 32>   H       2.803491     -0.407832      0.122319
| 33>   H      -0.718795     -3.794535     -0.002900
| 34>   H      -2.801177     -2.526251     -0.057963
| 35>   H      -4.014259     -0.367903     -0.106924
| 36>   H      -4.012560      2.065267     -0.121360
| 37>   H      -3.968808      3.978491     -0.157143
| 38>   H       2.773364     -2.295459     -0.015889
| 39>   H      -2.332424      6.585680     -0.040213
| 40>   H       1.011163     -4.814418      0.178666
| 41>   H       1.997716     -6.766436      0.212456
| 42>   H       3.242043     -6.665295     -1.063446
| 43>   H       3.720358     -6.915565      0.640423
| 44>   H       5.141993     -5.054634      0.400839
| 45>   H       4.582740     -3.913245     -0.857917
| 46>   H       4.420854     -3.494935      0.871646
| 47> *
| 48>
| 49>                          ****END OF INPUT****
 Total Charge           Charge          ....    0
 Multiplicity           Mult            ....    1
 Number of Electrons    NEL             ....  180
FINAL SINGLE POINT ENERGY     -1107.585081149682
FINAL SINGLE POINT ENERGY     -1107.585084820957
FINAL SINGLE POINT ENERGY     -1107.585063659268
FINAL SINGLE POINT ENERGY     -1107.585096723687
FINAL SINGLE POINT ENERGY     -1107.585109541379
FINAL SINGLE POINT ENERGY     -1107.585151580930
FINAL SINGLE POINT ENERGY     -1107.580975205155
FINAL SINGLE POINT ENERGY     -1107.585351668441
FINAL SINGLE POINT ENERGY     -1107.585437034738
FINAL SINGLE POINT ENERGY     -1107.585590955301
FINAL SINGLE POINT ENERGY     -1107.585623553345
FINAL SINGLE POINT ENERGY     -1107.585646967028
FINAL SINGLE POINT ENERGY     -1107.585655389817
FINAL SINGLE POINT ENERGY     -1107.585664606647
FINAL SINGLE POINT ENERGY     -1107.585670143830
FINAL SINGLE POINT ENERGY     -1107.585673272608
                    ***********************HURRAY********************

CARTESIAN COORDINATES (ANGSTROEM)
---------------------------------
  C     -1.781185    3.706351   -0.122116
  C     -0.521579    4.344912   -0.186991
  C      0.662149    3.632140   -0.166344
  C      0.654697    2.223239   -0.075691
  C      1.866173    1.463070   -0.065476
  C      1.849747    0.098903    0.025498
  C      0.624489   -0.641518    0.124843
  C      0.600098   -2.071389    0.234519
  C     -0.663592   -2.703559    0.299384
  C     -1.851199   -1.991745    0.248701
  C     -1.855034   -0.586655    0.152447
  C     -3.065702    0.172725    0.123268
  C     -3.056996    1.536910    0.038146
  C     -1.827525    2.277040   -0.029400
  C     -0.595476    1.533293   -0.002714
  C     -0.604864    0.100695    0.093531
  C     -3.005357    4.490721   -0.150715
  C      1.832563   -2.851811    0.291638
  C     -3.119573    5.832043   -0.228233
  C      1.921736   -4.176685   -0.022240
  N      3.018285   -4.985275    0.108690
  C      3.087895   -6.228088   -0.635387
  C      4.260329   -4.447576    0.620037
  N     -4.430719    6.455656   -0.246690
  O     -4.437889    7.680393   -0.315858
  O     -5.434878    5.755028   -0.194180
  H     -0.478125    5.433491   -0.258055
  H      1.619451    4.157050   -0.221841
  H      2.817195    1.997467   -0.140427
  H      2.798380   -0.438103    0.008503
  H     -0.709345   -3.786791    0.430227
  H     -2.805921   -2.522116    0.309487
  H     -4.018022   -0.363106    0.171589
  H     -4.010294    2.064087    0.020445
  H     -3.963721    3.970861   -0.106225
  H      2.739414   -2.331605    0.600012
  H     -2.324841    6.572803   -0.282216
  H      1.047012   -4.696955   -0.425614
  H      2.072714   -6.602852   -0.833014
  H      3.603124   -6.114678   -1.610813
  H      3.627750   -6.994232   -0.054769
  H      4.951691   -5.271636    0.849137
  H      4.760043   -3.767519   -0.099733
  H      4.078687   -3.882848    1.548483

 Multiplicity           Mult            ....    1
 Number of Electrons    NEL             ....  180
 Basis Dimension        Dim             ....  454

ORBITAL ENERGIES
----------------

  NO   OCC          E(Eh)            E(eV)
   0   2.0000     -19.136799      -520.7388
   1   2.0000     -19.136527      -520.7314
   2   2.0000     -14.535297      -395.5255
   3   2.0000     -14.369980      -391.0270
   4   2.0000     -10.240664      -278.6626
   5   2.0000     -10.236489      -278.5490
   6   2.0000     -10.236136      -278.5394
   7   2.0000     -10.227299      -278.2990
   8   2.0000     -10.216655      -278.0093
   9   2.0000     -10.211654      -277.8732
  10   2.0000     -10.208947      -277.7996
  11   2.0000     -10.208929      -277.7991
  12   2.0000     -10.206310      -277.7278
  13   2.0000     -10.205099      -277.6949
  14   2.0000     -10.202265      -277.6177
  15   2.0000     -10.201444      -277.5954
  16   2.0000     -10.200815      -277.5783
  17   2.0000     -10.198863      -277.5252
  18   2.0000     -10.197482      -277.4876
  19   2.0000     -10.196892      -277.4715
  20   2.0000     -10.196545      -277.4621
  21   2.0000     -10.196385      -277.4577
  22   2.0000     -10.196066      -277.4491
  23   2.0000     -10.193611      -277.3823
  24   2.0000     -10.192426      -277.3500
  25   2.0000     -10.182744      -277.0866
  26   2.0000      -1.195495       -32.5311
  27   2.0000      -1.020952       -27.7815
  28   2.0000      -0.960804       -26.1448
  29   2.0000      -0.890486       -24.2314
  30   2.0000      -0.856326       -23.3018
  31   2.0000      -0.831599       -22.6290
  32   2.0000      -0.823684       -22.4136
  33   2.0000      -0.799212       -21.7477
  34   2.0000      -0.779316       -21.2063
  35   2.0000      -0.760187       -20.6857
  36   2.0000      -0.744652       -20.2630
  37   2.0000      -0.737288       -20.0626
  38   2.0000      -0.729288       -19.8449
  39   2.0000      -0.721416       -19.6307
  40   2.0000      -0.682391       -18.5688
  41   2.0000      -0.665408       -18.1067
  42   2.0000      -0.633107       -17.2277
  43   2.0000      -0.622175       -16.9302
  44   2.0000      -0.617653       -16.8072
  45   2.0000      -0.602892       -16.4055
  46   2.0000      -0.571689       -15.5565
  47   2.0000      -0.562130       -15.2963
  48   2.0000      -0.537378       -14.6228
  49   2.0000      -0.531807       -14.4712
  50   2.0000      -0.530371       -14.4321
  51   2.0000      -0.519951       -14.1486
  52   2.0000      -0.516036       -14.0421
  53   2.0000      -0.514156       -13.9909
  54   2.0000      -0.505450       -13.7540
  55   2.0000      -0.498774       -13.5723
  56   2.0000      -0.484262       -13.1774
  57   2.0000      -0.483802       -13.1649
  58   2.0000      -0.474316       -12.9068
  59   2.0000      -0.466303       -12.6888
  60   2.0000      -0.450532       -12.2596
  61   2.0000      -0.445345       -12.1185
  62   2.0000      -0.439695       -11.9647
  63   2.0000      -0.428339       -11.6557
  64   2.0000      -0.420940       -11.4544
  65   2.0000      -0.420176       -11.4336
  66   2.0000      -0.415674       -11.3111
  67   2.0000      -0.414521       -11.2797
  68   2.0000      -0.405049       -11.0220
  69   2.0000      -0.403072       -10.9682
  70   2.0000      -0.401899       -10.9362
  71   2.0000      -0.397185       -10.8079
  72   2.0000      -0.385901       -10.5009
  73   2.0000      -0.381312       -10.3760
  74   2.0000      -0.378480       -10.2990
  75   2.0000      -0.358442        -9.7537
  76   2.0000      -0.352305        -9.5867
  77   2.0000      -0.341421        -9.2905
  78   2.0000      -0.337876        -9.1941
  79   2.0000      -0.325773        -8.8647
  80   2.0000      -0.318177        -8.6580
  81   2.0000      -0.297177        -8.0866
  82   2.0000      -0.288698        -7.8559
  83   2.0000      -0.288459        -7.8494
  84   2.0000      -0.275362        -7.4930
  85   2.0000      -0.270292        -7.3550
  86   2.0000      -0.262561        -7.1446
  87   2.0000      -0.241564        -6.5733
  88   2.0000      -0.224984        -6.1221
  89   2.0000      -0.185298        -5.0422
  90   0.0000      -0.094084        -2.5602
  91   0.0000      -0.055286        -1.5044
  92   0.0000      -0.037712        -1.0262
  93   0.0000      -0.018529        -0.5042
  94   0.0000      -0.005773        -0.1571

MULLIKEN ATOMIC CHARGES
-----------------------
   0 C :    0.073194
   1 C :   -0.022429
   2 C :   -0.032348
   3 C :    0.074132
   4 C :   -0.014255
   5 C :   -0.031268
   6 C :    0.053019
   7 C :    0.094133
   8 C :   -0.045667
   9 C :   -0.023877
  10 C :    0.060807
  11 C :   -0.004578
  12 C :   -0.045431
  13 C :    0.080695
  14 C :    0.053107
  15 C :    0.066793
  16 C :    0.040168
  17 C :   -0.101353
  18 C :    0.057077
  19 C :    0.109877
  20 N :   -0.288140
  21 C :    0.121228
  22 C :    0.128264
  23 N :    0.232956
  24 O :   -0.266158
  25 O :   -0.262054
  26 H :   -0.024547
  27 H :   -0.031485
  28 H :   -0.033879
  29 H :   -0.035513
  30 H :   -0.034271
  31 H :   -0.032187
  32 H :   -0.029635
  33 H :   -0.028321
  34 H :    0.013434
  35 H :   -0.022282
  36 H :    0.001709
  37 H :   -0.003549
  38 H :    0.028528
  39 H :    0.022939
  40 H :    0.025508
  41 H :    0.020439
  42 H :    0.018166
  43 H :    0.037054
Sum of atomic charges:   -0.0000000

LOEWDIN ATOMIC CHARGES
----------------------
   0 C :   -0.041389
   1 C :   -0.003276
   2 C :   -0.024995
   3 C :   -0.003747
   4 C :   -0.023748
   5 C :   -0.005985
   6 C :   -0.023631
   7 C :    0.003193
   8 C :   -0.031854
   9 C :   -0.008899
  10 C :   -0.030830
  11 C :   -0.003357
  12 C :   -0.029777
  13 C :    0.006346
  14 C :    0.000970
  15 C :    0.004614
  16 C :    0.025355
  17 C :   -0.121079
  18 C :   -0.031986
  19 C :    0.039049
  20 N :   -0.042256
  21 C :    0.035779
  22 C :    0.030707
  23 N :    0.272356
  24 O :   -0.225276
  25 O :   -0.232995
  26 H :    0.028740
  27 H :    0.028120
  28 H :    0.027348
  29 H :    0.025905
  30 H :    0.022709
  31 H :    0.027625
  32 H :    0.029580
  33 H :    0.029539
  34 H :    0.037527
  35 H :    0.019388
  36 H :    0.027070
  37 H :    0.022642
  38 H :    0.028311
  39 H :    0.016063
  40 H :    0.023340
  41 H :    0.026960
  42 H :    0.016612
  43 H :    0.029232

  Mayer bond orders larger than 0.100000
B(  0-C ,  1-C ) :   1.2928 B(  0-C , 13-C ) :   1.2433 B(  0-C , 16-C ) :   1.1176
B(  1-C ,  2-C ) :   1.4116 B(  1-C , 26-H ) :   0.9785 B(  2-C ,  3-C ) :   1.2557
B(  2-C , 27-H ) :   0.9878 B(  3-C ,  4-C ) :   1.1719 B(  3-C , 14-C ) :   1.2412
B(  4-C ,  5-C ) :   1.5212 B(  4-C , 28-H ) :   0.9845 B(  5-C ,  6-C ) :   1.1790
B(  5-C , 29-H ) :   0.9756 B(  6-C ,  7-C ) :   1.2547 B(  6-C , 15-C ) :   1.2307
B(  7-C ,  8-C ) :   1.3084 B(  7-C , 17-C ) :   1.1169 B(  8-C ,  9-C ) :   1.3917
B(  8-C , 30-H ) :   0.9749 B(  9-C , 10-C ) :   1.2696 B(  9-C , 31-H ) :   0.9861
B( 10-C , 11-C ) :   1.1650 B( 10-C , 15-C ) :   1.2412 B( 11-C , 12-C ) :   1.5288
B( 11-C , 32-H ) :   0.9833 B( 12-C , 13-C ) :   1.1785 B( 12-C , 33-H ) :   0.9795
B( 13-C , 14-C ) :   1.2335 B( 14-C , 15-C ) :   1.2284 B( 16-C , 18-C ) :   1.6283
B( 16-C , 34-H ) :   0.9448 B( 17-C , 19-C ) :   1.6199 B( 17-C , 35-H ) :   0.9476
B( 18-C , 23-N ) :   0.9472 B( 18-C , 36-H ) :   0.9833 B( 19-C , 20-N ) :   1.1963
B( 19-C , 37-H ) :   0.9517 B( 20-N , 21-C ) :   0.9996 B( 20-N , 22-C ) :   1.0134
B( 21-C , 38-H ) :   0.9691 B( 21-C , 39-H ) :   0.9629 B( 21-C , 40-H ) :   0.9696
B( 22-C , 41-H ) :   0.9662 B( 22-C , 42-H ) :   0.9594 B( 22-C , 43-H ) :   0.9604
B( 23-N , 24-O ) :   1.4882 B( 23-N , 25-O ) :   1.5140 B( 24-O , 25-O ) :   0.2692

FINAL SINGLE POINT ENERGY     -1107.585674009506

DIPOLE MOMENT
-------------
                                X             Y             Z
Electronic contribution:    -22.28613      31.10199      -0.09148
Nuclear contribution   :     25.39833     -34.88674       0.06994
                        -----------------------------------------
Total Dipole Moment    :      3.11220      -3.78475      -0.02155
                        -----------------------------------------
Magnitude (a.u.)       :      4.90006
Magnitude (Debye)      :     12.45497

VIBRATIONAL FREQUENCIES
-----------------------

Scaling factor for frequencies =  1.000000000  (already applied!)

   0:         0.00 cm**-1
   1:         0.00 cm**-1
   2:         0.00 cm**-1
   3:         0.00 cm**-1
   4:         0.00 cm**-1
   5:         0.00 cm**-1
   6:        18.61 cm**-1
   7:        28.15 cm**-1
   8:        36.63 cm**-1
   9:        54.10 cm**-1
  10:        55.87 cm**-1
  11:        83.87 cm**-1
  12:        97.35 cm**-1
  13:       121.97 cm**-1
  14:       128.85 cm**-1
  15:       146.80 cm**-1
  16:       177.20 cm**-1
  17:       185.74 cm**-1
  18:       197.29 cm**-1
  19:       203.11 cm**-1
  20:       222.43 cm**-1
  21:       244.07 cm**-1
  22:       264.08 cm**-1
  23:       270.50 cm**-1
  24:       274.42 cm**-1
  25:       304.88 cm**-1
  26:       336.99 cm**-1
  27:       383.19 cm**-1
  28:       415.09 cm**-1
  29:       419.58 cm**-1
  30:       446.70 cm**-1
  31:       456.73 cm**-1
  32:       495.21 cm**-1
  33:       505.67 cm**-1
  34:       524.64 cm**-1
  35:       528.19 cm**-1
  36:       561.47 cm**-1
  37:       566.73 cm**-1
  38:       570.37 cm**-1
  39:       580.21 cm**-1
  40:       600.84 cm**-1
  41:       628.57 cm**-1
  42:       667.67 cm**-1
  43:       700.94 cm**-1
  44:       717.68 cm**-1
  45:       731.77 cm**-1
  46:       742.05 cm**-1
  47:       761.95 cm**-1
  48:       775.14 cm**-1
  49:       794.92 cm**-1
  50:       816.60 cm**-1
  51:       820.55 cm**-1
  52:       824.37 cm**-1
  53:       844.70 cm**-1
  54:       859.01 cm**-1
  55:       866.42 cm**-1
  56:       880.66 cm**-1
  57:       886.93 cm**-1
  58:       902.20 cm**-1
  59:       942.47 cm**-1
  60:       960.08 cm**-1
  61:       990.76 cm**-1
  62:       993.44 cm**-1
  63:       995.31 cm**-1
  64:       999.72 cm**-1
  65:      1010.32 cm**-1
  66:      1013.21 cm**-1
  67:      1015.21 cm**-1
  68:      1017.43 cm**-1
  69:      1082.45 cm**-1
  70:      1108.30 cm**-1
  71:      1113.16 cm**-1
  72:      1128.23 cm**-1
  73:      1132.82 cm**-1
  74:      1153.34 cm**-1
  75:      1179.11 cm**-1
  76:      1187.89 cm**-1
  77:      1202.27 cm**-1
  78:      1210.72 cm**-1
  79:      1233.38 cm**-1
  80:      1246.67 cm**-1
  81:      1261.88 cm**-1
  82:      1265.83 cm**-1
  83:      1275.42 cm**-1
  84:      1283.16 cm**-1
  85:      1320.20 cm**-1
  86:      1326.75 cm**-1
  87:      1339.04 cm**-1
  88:      1371.06 cm**-1
  89:      1380.26 cm**-1
  90:      1391.44 cm**-1
  91:      1402.10 cm**-1
  92:      1405.67 cm**-1
  93:      1419.09 cm**-1
  94:      1426.56 cm**-1
  95:      1435.03 cm**-1
  96:      1443.06 cm**-1
  97:      1451.70 cm**-1
  98:      1455.68 cm**-1
  99:      1460.92 cm**-1
 100:      1467.15 cm**-1
 101:      1484.50 cm**-1
 102:      1503.33 cm**-1
 103:      1508.39 cm**-1
 104:      1534.98 cm**-1
 105:      1548.63 cm**-1
 106:      1570.74 cm**-1
 107:      1619.28 cm**-1
 108:      1625.31 cm**-1
 109:      1642.58 cm**-1
 110:      1657.32 cm**-1
 111:      1664.56 cm**-1
 112:      1690.13 cm**-1
 113:      1692.89 cm**-1
 114:      2972.22 cm**-1
 115:      2978.72 cm**-1
 116:      3067.18 cm**-1
 117:      3072.70 cm**-1
 118:      3124.88 cm**-1
 119:      3126.96 cm**-1
 120:      3164.95 cm**-1
 121:      3170.06 cm**-1
 122:      3173.55 cm**-1
 123:      3173.70 cm**-1
 124:      3177.34 cm**-1
 125:      3192.35 cm**-1
 126:      3198.13 cm**-1
 127:      3200.59 cm**-1
 128:      3205.39 cm**-1
 129:      3216.52 cm**-1
 130:      3223.36 cm**-1
 131:      3253.93 cm**-1

IR SPECTRUM
-----------

 Mode   freq       eps      Int      T**2         TX        TY        TZ
       cm**-1   L/(mol*cm) km/mol    a.u.
----------------------------------------------------------------------------
  6:     18.61   0.000019    0.10  0.000321  ( 0.006912 -0.016353 -0.002437)
  7:     28.15   0.000021    0.11  0.000236  ( 0.005202 -0.010495 -0.009925)
  8:     36.63   0.000418    2.11  0.003559  ( 0.022710 -0.049225  0.024904)
  9:     54.10   0.000063    0.32  0.000364  (-0.006234 -0.004950  0.017335)
 10:     55.87   0.000307    1.55  0.001717  ( 0.005416 -0.000464  0.041079)
 11:     83.87   0.000755    3.81  0.002807  (-0.005726 -0.051993  0.008444)
 12:     97.35   0.000369    1.87  0.001184  ( 0.015444 -0.027902 -0.012910)
 13:    121.97   0.000222    1.12  0.000567  ( 0.003206 -0.007539 -0.022353)
 14:    128.85   0.001358    6.86  0.003288  ( 0.024975 -0.045139  0.025034)
 15:    146.80   0.001227    6.20  0.002609  (-0.022465  0.043102  0.015696)
 16:    177.20   0.000093    0.47  0.000164  ( 0.004816  0.010507 -0.005497)
 17:    185.74   0.000019    0.10  0.000032  ( 0.004890 -0.002036 -0.001894)
 18:    197.29   0.000070    0.35  0.000110  (-0.003526  0.000647 -0.009871)
 19:    203.11   0.000096    0.49  0.000148  ( 0.007107 -0.009034  0.004004)
 20:    222.43   0.001262    6.38  0.001770  ( 0.003447  0.006332  0.041447)
 21:    244.07   0.000206    1.04  0.000264  (-0.007500 -0.012134  0.007761)
 22:    264.08   0.000037    0.19  0.000043  (-0.006205  0.000398  0.002173)
 23:    270.50   0.000140    0.71  0.000161  (-0.010551  0.006101 -0.003562)
 24:    274.42   0.000410    2.07  0.000466  (-0.014725  0.015399  0.003481)
 25:    304.88   0.001402    7.08  0.001435  ( 0.017529 -0.032826  0.007053)
 26:    336.99   0.006809   34.41  0.006306  (-0.033537  0.071383 -0.009245)
 27:    383.19   0.000298    1.50  0.000242  ( 0.004753 -0.014403 -0.003514)
 28:    415.09   0.002402   12.14  0.001805  (-0.021299  0.035949  0.007712)
 29:    419.58   0.001069    5.40  0.000795  ( 0.016696 -0.022574  0.002518)
 30:    446.70   0.000404    2.04  0.000282  (-0.011821  0.011937 -0.000417)
 31:    456.73   0.001693    8.56  0.001157  (-0.019546  0.027339 -0.005247)
 32:    495.21   0.000220    1.11  0.000139  ( 0.007040  0.008327  0.004472)
 33:    505.67   0.000729    3.68  0.000450  ( 0.009388 -0.018776  0.003043)
 34:    524.64   0.000712    3.60  0.000424  (-0.001712  0.020502  0.000666)
 35:    528.19   0.000407    2.06  0.000241  ( 0.000684  0.015478 -0.000828)
 36:    561.47   0.000710    3.59  0.000395  (-0.001507  0.000276 -0.019812)
 37:    566.73   0.000197    1.00  0.000109  (-0.006789  0.005769 -0.005409)
 38:    570.37   0.000674    3.41  0.000369  ( 0.002098 -0.007465  0.017568)
 39:    580.21   0.001056    5.34  0.000568  (-0.009538  0.021813 -0.001042)
 40:    600.84   0.001977    9.99  0.001027  ( 0.017043 -0.026203  0.007060)
 41:    628.57   0.000111    0.56  0.000055  ( 0.002292 -0.006810  0.001812)
 42:    667.67   0.000245    1.24  0.000114  ( 0.003860 -0.009970  0.000059)
 43:    700.94   0.000392    1.98  0.000174  (-0.010701  0.007737  0.000106)
 44:    717.68   0.001290    6.52  0.000561  ( 0.004234 -0.004918  0.022777)
 45:    731.77   0.000517    2.61  0.000221  ( 0.013378 -0.001367 -0.006304)
 46:    742.05   0.000104    0.53  0.000044  (-0.005839 -0.002042 -0.002349)
 47:    761.95   0.002581   13.04  0.001057  ( 0.005226  0.002178  0.032015)
 48:    775.14   0.002415   12.20  0.000972  (-0.024128  0.019682  0.001616)
 49:    794.92   0.002314   11.70  0.000909  (-0.026835  0.013713 -0.000673)
 50:    816.60   0.000701    3.54  0.000268  ( 0.009007  0.000816 -0.013646)
 51:    820.55   0.004094   20.69  0.001557  ( 0.006647 -0.038854  0.001782)
 52:    824.37   0.000515    2.60  0.000195  ( 0.013153 -0.003493 -0.003128)
 53:    844.70   0.007100   35.88  0.002623  ( 0.006999 -0.006695 -0.050290)
 54:    859.01   0.000990    5.00  0.000360  (-0.017740  0.006534  0.001473)
 55:    866.42   0.002956   14.94  0.001065  ( 0.002680 -0.005370 -0.032071)
 56:    880.66   0.000008    0.04  0.000003  ( 0.001049 -0.001040 -0.000767)
 57:    886.93   0.008687   43.90  0.003057  (-0.005265  0.000992 -0.055026)
 58:    902.20   0.005306   26.82  0.001835  ( 0.029946 -0.029508 -0.008238)
 59:    942.47   0.000958    4.84  0.000317  ( 0.006540 -0.009376 -0.013659)
 60:    960.08   0.020656  104.39  0.006714  ( 0.049991 -0.055692 -0.033365)
 61:    990.76   0.020675  104.48  0.006512  (-0.044142  0.067554 -0.000277)
 62:    993.44   0.003859   19.50  0.001212  (-0.016678  0.027104 -0.014120)
 63:    995.31   0.008440   42.65  0.002646  (-0.025730  0.044308  0.004582)
 64:    999.72   0.002563   12.95  0.000800  ( 0.016849 -0.022691  0.001158)
 65:   1010.32   0.001289    6.52  0.000398  (-0.004403  0.004866 -0.018845)
 66:   1013.21   0.016610   83.94  0.005116  ( 0.038687 -0.060023  0.004053)
 67:   1015.21   0.001484    7.50  0.000456  (-0.008253  0.012729  0.015029)
 68:   1017.43   0.000838    4.23  0.000257  ( 0.004844 -0.005610  0.014215)
 69:   1082.45   0.002605   13.16  0.000751  ( 0.024053 -0.003708  0.012598)
 70:   1108.30   0.047778  241.45  0.013453  ( 0.054124 -0.101953 -0.011365)
 71:   1113.16   0.000936    4.73  0.000263  ( 0.011913 -0.007293  0.008210)
 72:   1128.23   0.021120  106.73  0.005842  (-0.044396  0.062099  0.003808)
 73:   1132.82   0.001390    7.02  0.000383  (-0.013675  0.013984  0.000562)
 74:   1153.34   0.021046  106.36  0.005694  (-0.040246  0.063423 -0.007226)
 75:   1179.11   0.000117    0.59  0.000031  (-0.000717  0.005509 -0.000140)
 76:   1187.89   0.001148    5.80  0.000302  ( 0.014215 -0.009974 -0.000023)
 77:   1202.27   0.011637   58.81  0.003021  (-0.026334  0.048199 -0.002005)
 78:   1210.72   0.003083   15.58  0.000795  ( 0.021353  0.018384 -0.000844)
 79:   1233.38   0.002417   12.22  0.000612  ( 0.013888 -0.020376 -0.001891)
 80:   1246.67   0.005610   28.35  0.001404  ( 0.006775  0.035126  0.011158)
 81:   1261.88   0.119729  605.06  0.029609  ( 0.090426 -0.146316  0.004888)
 82:   1265.83   0.004432   22.40  0.001093  (-0.017460  0.027690  0.004599)
 83:   1275.42   0.024182  122.20  0.005917  (-0.044178  0.062780 -0.004864)
 84:   1283.16   0.013991   70.71  0.003403  (-0.033462  0.047596 -0.004201)
 85:   1320.20   0.016558   83.68  0.003914  ( 0.035757 -0.051298 -0.001946)
 86:   1326.75   0.013149   66.45  0.003093  (-0.027444  0.048052  0.005528)
 87:   1339.04   0.000387    1.96  0.000090  ( 0.005526  0.006671 -0.003897)
 88:   1371.06   0.002231   11.28  0.000508  ( 0.009626 -0.020353 -0.000967)
 89:   1380.26   0.002336   11.80  0.000528  (-0.021751 -0.004176 -0.006123)
 90:   1391.44   0.209682  1059.65  0.047026  ( 0.140109 -0.165334  0.007747)
 91:   1402.10   0.097210  491.26  0.021636  ( 0.099458 -0.108233  0.005435)
 92:   1405.67   0.000047    0.24  0.000010  ( 0.001238  0.002764 -0.001113)
 93:   1419.09   0.016939   85.60  0.003725  (-0.043104  0.042903  0.005123)
 94:   1426.56   0.016895   85.38  0.003696  ( 0.023925 -0.055843 -0.002228)
 95:   1435.03   0.014306   72.30  0.003111  ( 0.029945 -0.046743 -0.005422)
 96:   1443.06   0.000021    0.11  0.000005  (-0.002133 -0.000286  0.000122)
 97:   1451.70   0.001590    8.03  0.000342  (-0.010134 -0.008778  0.012729)
 98:   1455.68   0.003047   15.40  0.000653  (-0.005915  0.019209  0.015787)
 99:   1460.92   0.014589   73.73  0.003116  (-0.030619  0.044755 -0.013256)
100:   1467.15   0.008547   43.19  0.001818  (-0.031639  0.028295 -0.004035)
101:   1484.50   0.007579   38.30  0.001593  ( 0.012426 -0.037922 -0.000778)
102:   1503.33   0.003424   17.30  0.000711  ( 0.019191 -0.018371  0.002208)
103:   1508.39   0.004880   24.66  0.001009  (-0.029342  0.012181 -0.000406)
104:   1534.98   0.001113    5.62  0.000226  ( 0.013843 -0.005873 -0.000313)
105:   1548.63   0.007854   39.69  0.001583  ( 0.010072 -0.038410  0.002444)
106:   1570.74   0.009145   46.21  0.001817  ( 0.030734 -0.029530 -0.000474)
107:   1619.28   0.002019   10.20  0.000389  ( 0.006650 -0.018571  0.000082)
108:   1625.31   0.102977  520.41  0.019772  (-0.114859  0.081113  0.000144)
109:   1642.58   0.079860  403.58  0.015172  ( 0.044331 -0.114916  0.001087)
110:   1657.32   0.004195   21.20  0.000790  ( 0.025277  0.011951 -0.002844)
111:   1664.56   0.084685  427.96  0.015876  (-0.038639  0.119907 -0.002382)
112:   1690.13   0.083476  421.85  0.015413  (-0.083062  0.092003  0.007016)
113:   1692.89   0.089414  451.86  0.016482  (-0.040841  0.121678 -0.003000)
114:   2972.22   0.007456   37.68  0.000783  (-0.017292 -0.018467 -0.011948)
115:   2978.72   0.048618  245.69  0.005093  ( 0.047818 -0.046346 -0.025668)
116:   3067.18   0.009041   45.69  0.000920  (-0.003407  0.025546 -0.015989)
117:   3072.70   0.005519   27.89  0.000560  ( 0.008662 -0.011654  0.018698)
118:   3124.88   0.000917    4.64  0.000092  (-0.003909 -0.007755 -0.004020)
119:   3126.96   0.005037   25.46  0.000503  (-0.018068  0.013149 -0.001837)
120:   3164.95   0.001177    5.95  0.000116  (-0.009651 -0.003290 -0.003479)
121:   3170.06   0.000275    1.39  0.000027  (-0.003431  0.003717  0.001212)
122:   3173.55   0.001499    7.57  0.000147  ( 0.012107  0.000813 -0.000349)
123:   3173.70   0.001761    8.90  0.000173  (-0.013114  0.000759  0.000753)
124:   3177.34   0.002071   10.47  0.000203  ( 0.014257 -0.000317 -0.000228)
125:   3192.35   0.004268   21.57  0.000417  ( 0.005596  0.019592 -0.001437)
126:   3198.13   0.002316   11.71  0.000226  ( 0.005404  0.014006 -0.000806)
127:   3200.59   0.001782    9.00  0.000174  ( 0.006185 -0.011375  0.002463)
128:   3205.39   0.000952    4.81  0.000093  (-0.009275 -0.002572  0.000301)
129:   3216.52   0.004506   22.77  0.000437  (-0.019811  0.006584 -0.001170)
130:   3223.36   0.000457    2.31  0.000044  ( 0.005942 -0.002996  0.000027)
131:   3253.93   0.003400   17.18  0.000326  ( 0.009550 -0.015312  0.000658)

--------------------------
THERMOCHEMISTRY AT 298.15K
--------------------------

Temperature         ... 298.15 K
Pressure            ... 1.00 atm
Total Mass          ... 342.40 AMU

Throughout the following assumptions are being made:
  (1) The electronic state is orbitally nondegenerate
  (2) There are no thermally accessible electronically excited states
  (3) Hindered rotations indicated by low frequency modes are not
      treated as such but are treated as vibrations and this may
      cause some error
  (4) All equations used are the standard statistical mechanics
      equations for an ideal gas
  (5) All vibrations are strictly harmonic

freq.      18.61  E(vib)   ...       0.57
freq.      28.15  E(vib)   ...       0.55
freq.      36.63  E(vib)   ...       0.54
freq.      54.10  E(vib)   ...       0.52
freq.      55.87  E(vib)   ...       0.52
freq.      83.87  E(vib)   ...       0.48
freq.      97.35  E(vib)   ...       0.46
freq.     121.97  E(vib)   ...       0.44
freq.     128.85  E(vib)   ...       0.43
freq.     146.80  E(vib)   ...       0.41
freq.     177.20  E(vib)   ...       0.37
freq.     185.74  E(vib)   ...       0.37
freq.     197.29  E(vib)   ...       0.35
freq.     203.11  E(vib)   ...       0.35
freq.     222.43  E(vib)   ...       0.33
freq.     244.07  E(vib)   ...       0.31
freq.     264.08  E(vib)   ...       0.29
freq.     270.50  E(vib)   ...       0.29
freq.     274.42  E(vib)   ...       0.28
freq.     304.88  E(vib)   ...       0.26
freq.     336.99  E(vib)   ...       0.24
freq.     383.19  E(vib)   ...       0.20
freq.     415.09  E(vib)   ...       0.19
freq.     419.58  E(vib)   ...       0.18
freq.     446.70  E(vib)   ...       0.17
freq.     456.73  E(vib)   ...       0.16
freq.     495.21  E(vib)   ...       0.14
freq.     505.67  E(vib)   ...       0.14
freq.     524.64  E(vib)   ...       0.13
freq.     528.19  E(vib)   ...       0.13
freq.     561.47  E(vib)   ...       0.11
freq.     566.73  E(vib)   ...       0.11
freq.     570.37  E(vib)   ...       0.11
freq.     580.21  E(vib)   ...       0.11
freq.     600.84  E(vib)   ...       0.10
freq.     628.57  E(vib)   ...       0.09
freq.     667.67  E(vib)   ...       0.08
freq.     700.94  E(vib)   ...       0.07
freq.     717.68  E(vib)   ...       0.07
freq.     731.77  E(vib)   ...       0.06
freq.     742.05  E(vib)   ...       0.06
freq.     761.95  E(vib)   ...       0.06
freq.     775.14  E(vib)   ...       0.05
freq.     794.92  E(vib)   ...       0.05
freq.     816.60  E(vib)   ...       0.05
freq.     820.55  E(vib)   ...       0.05
freq.     824.37  E(vib)   ...       0.04
freq.     844.70  E(vib)   ...       0.04
freq.     859.01  E(vib)   ...       0.04
freq.     866.42  E(vib)   ...       0.04
freq.     880.66  E(vib)   ...       0.04
freq.     886.93  E(vib)   ...       0.04
freq.     902.20  E(vib)   ...       0.03
freq.     942.47  E(vib)   ...       0.03
freq.     960.08  E(vib)   ...       0.03
freq.     990.76  E(vib)   ...       0.02
freq.     993.44  E(vib)   ...       0.02
freq.     995.31  E(vib)   ...       0.02
freq.     999.72  E(vib)   ...       0.02
freq.    1010.32  E(vib)   ...       0.02
freq.    1013.21  E(vib)   ...       0.02
freq.    1015.21  E(vib)   ...       0.02
freq.    1017.43  E(vib)   ...       0.02
freq.    1082.45  E(vib)   ...       0.02
freq.    1108.30  E(vib)   ...       0.02
freq.    1113.16  E(vib)   ...       0.01
freq.    1128.23  E(vib)   ...       0.01
freq.    1132.82  E(vib)   ...       0.01
freq.    1153.34  E(vib)   ...       0.01
freq.    1179.11  E(vib)   ...       0.01
freq.    1187.89  E(vib)   ...       0.01
freq.    1202.27  E(vib)   ...       0.01
freq.    1210.72  E(vib)   ...       0.01
freq.    1233.38  E(vib)   ...       0.01
freq.    1246.67  E(vib)   ...       0.01
freq.    1261.88  E(vib)   ...       0.01
freq.    1265.83  E(vib)   ...       0.01
freq.    1275.42  E(vib)   ...       0.01
freq.    1283.16  E(vib)   ...       0.01
freq.    1320.20  E(vib)   ...       0.01
freq.    1326.75  E(vib)   ...       0.01
freq.    1339.04  E(vib)   ...       0.01
freq.    1371.06  E(vib)   ...       0.01
freq.    1380.26  E(vib)   ...       0.01
freq.    1391.44  E(vib)   ...       0.00
freq.    1402.10  E(vib)   ...       0.00
freq.    1405.67  E(vib)   ...       0.00
freq.    1419.09  E(vib)   ...       0.00
freq.    1426.56  E(vib)   ...       0.00
freq.    1435.03  E(vib)   ...       0.00
freq.    1443.06  E(vib)   ...       0.00
freq.    1451.70  E(vib)   ...       0.00
freq.    1455.68  E(vib)   ...       0.00
freq.    1460.92  E(vib)   ...       0.00
freq.    1467.15  E(vib)   ...       0.00
freq.    1484.50  E(vib)   ...       0.00
freq.    1503.33  E(vib)   ...       0.00
freq.    1508.39  E(vib)   ...       0.00
freq.    1534.98  E(vib)   ...       0.00
freq.    1548.63  E(vib)   ...       0.00
freq.    1570.74  E(vib)   ...       0.00
freq.    1619.28  E(vib)   ...       0.00
freq.    1625.31  E(vib)   ...       0.00
freq.    1642.58  E(vib)   ...       0.00
freq.    1657.32  E(vib)   ...       0.00
freq.    1664.56  E(vib)   ...       0.00
freq.    1690.13  E(vib)   ...       0.00
freq.    1692.89  E(vib)   ...       0.00
freq.    2972.22  E(vib)   ...       0.00
freq.    2978.72  E(vib)   ...       0.00
freq.    3067.18  E(vib)   ...       0.00
freq.    3072.70  E(vib)   ...       0.00
freq.    3124.88  E(vib)   ...       0.00
freq.    3126.96  E(vib)   ...       0.00
freq.    3164.95  E(vib)   ...       0.00
freq.    3170.06  E(vib)   ...       0.00
freq.    3173.55  E(vib)   ...       0.00
freq.    3173.70  E(vib)   ...       0.00
freq.    3177.34  E(vib)   ...       0.00
freq.    3192.35  E(vib)   ...       0.00
freq.    3198.13  E(vib)   ...       0.00
freq.    3200.59  E(vib)   ...       0.00
freq.    3205.39  E(vib)   ...       0.00
freq.    3216.52  E(vib)   ...       0.00
freq.    3223.36  E(vib)   ...       0.00
freq.    3253.93  E(vib)   ...       0.00

------------
INNER ENERGY
------------

The inner energy is: U= E(el) + E(ZPE) + E(vib) + E(rot) + E(trans)
    E(el)   - is the total energy from the electronic structure calculation
              = E(kin-el) + E(nuc-el) + E(el-el) + E(nuc-nuc)
    E(ZPE)  - the the zero temperature vibrational energy from the frequency calculation
    E(vib)  - the the finite temperature correction to E(ZPE) due to population
              of excited vibrational states
    E(rot)  - is the rotational thermal energy
    E(trans)- is the translational thermal energy

Summary of contributions to the inner energy U:
Electronic energy                ...  -1107.58567401 Eh
Zero point energy                ...      0.35007024 Eh     219.67 kcal/mol
Thermal vibrational correction   ...      0.01882911 Eh      11.82 kcal/mol

Rotational constants in cm-1:     0.022928     0.002466     0.002239

                             ****ORCA TERMINATED NORMALLY****
TOTAL RUN TIME: 0 days 1 hours 16 minutes 45 seconds 296 msec
