                         Program Version 5.0.4 -  RELEASE  -
|  1> ! B3LYP def2-SVP Opt PAL8 FREQ
|  2> #defgrid3 slowconv VeryTightSCF
|  3> *xyz 0 1
|  4>   C   -7.117698    3.174210   -0.265269
|  5>   C   -5.907082    3.766015   -0.239255
|  6>   C   -4.771567    3.065390   -0.158900
|  7>   C   -4.813823    1.728256   -0.101786
|  8>   C   -3.666934    1.040811   -0.022369
|  9>   C   -3.683753   -0.295329    0.034640
| 10>   C   -4.832470   -1.000677    0.015485
| 11>   C   -4.853659   -2.361261    0.071961
| 12>   C   -6.061339   -2.958151    0.047900
| 13>   C   -7.197568   -2.258131   -0.028531
| 14>   C   -7.156107   -0.920598   -0.084841
| 15>   C   -8.302702   -0.232908   -0.162631
| 16>   C   -8.285798    1.103269   -0.221093
| 17>   C   -7.138854    1.812574   -0.204738
| 18>   C   -5.994516    1.083437   -0.123814
| 19>   C   -5.977125   -0.272677   -0.063818
| 20>   C   -8.227386    3.950251   -0.349214
| 21>   C   -3.745562   -3.137174    0.147940
| 22>   C   -8.332449    5.294189   -0.415680
| 23>   C   -3.644524   -4.478967    0.207583
| 24>   O   -2.419775   -5.085551    0.297884
| 25>   C   -2.385021   -6.231339    1.119099
| 26>   N   -9.420823    5.916420   -0.492251
| 27>   O   -9.430902    7.229740   -0.552460
| 28>   O  -10.602112    5.343188   -0.518215
| 29>   H   -5.762356    4.855328   -0.281762
| 30>   H   -3.810226    3.608219   -0.141589
| 31>   H   -2.693041    1.561159   -0.002990
| 32>   H   -2.683878   -0.746904    0.097573
| 33>   H   -6.196763   -4.049150    0.087768
| 34>   H   -8.158280   -2.801960   -0.045153
| 35>   H   -9.276410   -0.753784   -0.180283
| 36>   H   -9.288308    1.548953   -0.282568
| 37>   H   -9.209081    3.459558   -0.369912
| 38>   H   -2.747358   -2.676574    0.164404
| 39>   H   -7.428738    5.922115   -0.405254
| 40>   H   -4.511966   -5.154728    0.221307
| 41>   H   -1.334727   -6.597603    1.158423
| 42>   H   -2.718456   -5.970102    2.148635
| 43>   H   -3.028467   -7.031944    0.690118
| 44> **                         ****END OF INPUT****
 Total Charge           Charge          ....    0
 Multiplicity           Mult            ....    1
 Number of Electrons    NEL             ....  172
FINAL SINGLE POINT ENERGY     -1088.008049152852
FINAL SINGLE POINT ENERGY     -1088.105826963919
FINAL SINGLE POINT ENERGY     -1088.154969434843
FINAL SINGLE POINT ENERGY     -1088.168087903420
FINAL SINGLE POINT ENERGY     -1088.170001732816
FINAL SINGLE POINT ENERGY     -1088.170846104318
FINAL SINGLE POINT ENERGY     -1088.171121459230
FINAL SINGLE POINT ENERGY     -1088.171224191009
FINAL SINGLE POINT ENERGY     -1088.171279393370
FINAL SINGLE POINT ENERGY     -1088.171309245522
FINAL SINGLE POINT ENERGY     -1088.171470275061
FINAL SINGLE POINT ENERGY     -1088.171552349513
FINAL SINGLE POINT ENERGY     -1088.171607806032
FINAL SINGLE POINT ENERGY     -1088.171631849152
FINAL SINGLE POINT ENERGY     -1088.171648727902
FINAL SINGLE POINT ENERGY     -1088.171657089464
FINAL SINGLE POINT ENERGY     -1088.171667266667
FINAL SINGLE POINT ENERGY     -1088.171673280977
FINAL SINGLE POINT ENERGY     -1088.171677830266
                    ***********************HURRAY********************

CARTESIAN COORDINATES (ANGSTROEM)
---------------------------------
  C     -7.114154    3.323450   -0.260229
  C     -5.847733    3.949132   -0.219080
  C     -4.674191    3.222112   -0.144950
  C     -4.700077    1.812020   -0.109015
  C     -3.499056    1.038548   -0.021883
  C     -3.532240   -0.326929    0.012544
  C     -4.768862   -1.055461   -0.046134
  C     -4.816060   -2.484765   -0.018500
  C     -6.080594   -3.110050   -0.067210
  C     -7.260448   -2.382758   -0.121773
  C     -7.244746   -0.975756   -0.152049
  C     -8.445594   -0.200778   -0.226068
  C     -8.417775    1.164372   -0.262385
  C     -7.178971    1.893144   -0.225886
  C     -5.958535    1.135212   -0.152245
  C     -5.987518   -0.299411   -0.118730
  C     -8.327922    4.123940   -0.334378
  C     -3.589756   -3.282836    0.046990
  C     -8.418283    5.466646   -0.401834
  C     -3.505055   -4.540032    0.529212
  O     -2.345892   -5.226837    0.508567
  C     -2.331709   -6.475719    1.173857
  N     -9.719234    6.111649   -0.468854
  O     -9.703179    7.335917   -0.533284
  O    -10.734606    5.426265   -0.458187
  H     -5.789395    5.038989   -0.242245
  H     -3.711106    3.738129   -0.111315
  H     -2.542128    1.565550    0.023058
  H     -2.592928   -0.873782    0.095893
  H     -6.133457   -4.200591   -0.095517
  H     -8.220428   -2.904975   -0.164132
  H     -9.404108   -0.726637   -0.254301
  H     -9.362956    1.703094   -0.320191
  H     -9.294559    3.617689   -0.338150
  H     -2.654930   -2.846470   -0.312261
  H     -7.610767    6.195340   -0.417760
  H     -4.365160   -5.063636    0.967162
  H     -1.338057   -6.915073    1.013290
  H     -2.499905   -6.359131    2.259925
  H     -3.095528   -7.162001    0.764393

 Multiplicity           Mult            ....    1
 Number of Electrons    NEL             ....  172
 Basis Dimension        Dim             ....  425

ORBITAL ENERGIES
----------------

  NO   OCC          E(Eh)            E(eV)
   0   2.0000     -19.179715      -521.9066
   1   2.0000     -19.142109      -520.8833
   2   2.0000     -19.141798      -520.8748
   3   2.0000     -14.540523      -395.6677
   4   2.0000     -10.259228      -279.1678
   5   2.0000     -10.258442      -279.1464
   6   2.0000     -10.233095      -278.4567
   7   2.0000     -10.222196      -278.1601
   8   2.0000     -10.217511      -278.0326
   9   2.0000     -10.215484      -277.9775
  10   2.0000     -10.215430      -277.9760
  11   2.0000     -10.211768      -277.8763
  12   2.0000     -10.210812      -277.8503
  13   2.0000     -10.208992      -277.8008
  14   2.0000     -10.208514      -277.7878
  15   2.0000     -10.206311      -277.7279
  16   2.0000     -10.204586      -277.6809
  17   2.0000     -10.203792      -277.6593
  18   2.0000     -10.203403      -277.6487
  19   2.0000     -10.202790      -277.6320
  20   2.0000     -10.202322      -277.6193
  21   2.0000     -10.201701      -277.6024
  22   2.0000     -10.200599      -277.5724
  23   2.0000     -10.200162      -277.5605
  24   2.0000     -10.191991      -277.3382
  25   2.0000      -1.200935       -32.6791
  26   2.0000      -1.074206       -29.2306
  27   2.0000      -1.026555       -27.9340
  28   2.0000      -0.896900       -24.4059
  29   2.0000      -0.863087       -23.4858
  30   2.0000      -0.837477       -22.7889
  31   2.0000      -0.830290       -22.5934
  32   2.0000      -0.806150       -21.9364
  33   2.0000      -0.787683       -21.4339
  34   2.0000      -0.768681       -20.9169
  35   2.0000      -0.750676       -20.4269
  36   2.0000      -0.738720       -20.1016
  37   2.0000      -0.729084       -19.8394
  38   2.0000      -0.695618       -18.9287
  39   2.0000      -0.678203       -18.4549
  40   2.0000      -0.640245       -17.4219
  41   2.0000      -0.632324       -17.2064
  42   2.0000      -0.625174       -17.0118
  43   2.0000      -0.612593       -16.6695
  44   2.0000      -0.587133       -15.9767
  45   2.0000      -0.568767       -15.4769
  46   2.0000      -0.543940       -14.8013
  47   2.0000      -0.539592       -14.6831
  48   2.0000      -0.536729       -14.6051
  49   2.0000      -0.526790       -14.3347
  50   2.0000      -0.521234       -14.1835
  51   2.0000      -0.518620       -14.1124
  52   2.0000      -0.511812       -13.9271
  53   2.0000      -0.503935       -13.7128
  54   2.0000      -0.487305       -13.2602
  55   2.0000      -0.482756       -13.1364
  56   2.0000      -0.478884       -13.0311
  57   2.0000      -0.465999       -12.6805
  58   2.0000      -0.456206       -12.4140
  59   2.0000      -0.451230       -12.2786
  60   2.0000      -0.443410       -12.0658
  61   2.0000      -0.431501       -11.7417
  62   2.0000      -0.426431       -11.6038
  63   2.0000      -0.420389       -11.4394
  64   2.0000      -0.412028       -11.2119
  65   2.0000      -0.408409       -11.1134
  66   2.0000      -0.404313       -11.0019
  67   2.0000      -0.398322       -10.8389
  68   2.0000      -0.387689       -10.5496
  69   2.0000      -0.385297       -10.4845
  70   2.0000      -0.368802       -10.0356
  71   2.0000      -0.367753       -10.0071
  72   2.0000      -0.358008        -9.7419
  73   2.0000      -0.350448        -9.5362
  74   2.0000      -0.343872        -9.3572
  75   2.0000      -0.334602        -9.1050
  76   2.0000      -0.331355        -9.0166
  77   2.0000      -0.302991        -8.2448
  78   2.0000      -0.293571        -7.9885
  79   2.0000      -0.293519        -7.9871
  80   2.0000      -0.286573        -7.7981
  81   2.0000      -0.275471        -7.4959
  82   2.0000      -0.268923        -7.3178
  83   2.0000      -0.248775        -6.7695
  84   2.0000      -0.239024        -6.5042
  85   2.0000      -0.199304        -5.4233
  86   0.0000      -0.099862        -2.7174
  87   0.0000      -0.061818        -1.6822
  88   0.0000      -0.044390        -1.2079
  89   0.0000      -0.024451        -0.6653
  90   0.0000      -0.012764        -0.3473

MULLIKEN ATOMIC CHARGES
-----------------------
   0 C :    0.074213
   1 C :   -0.022278
   2 C :   -0.029870
   3 C :    0.073754
   4 C :   -0.010829
   5 C :   -0.029359
   6 C :    0.057498
   7 C :    0.077336
   8 C :   -0.038584
   9 C :   -0.025468
  10 C :    0.064434
  11 C :   -0.004082
  12 C :   -0.040926
  13 C :    0.078970
  14 C :    0.054734
  15 C :    0.065425
  16 C :    0.040300
  17 C :   -0.039943
  18 C :    0.060020
  19 C :    0.131806
  20 O :   -0.299216
  21 C :    0.178838
  22 N :    0.232492
  23 O :   -0.262459
  24 O :   -0.259251
  25 H :   -0.022427
  26 H :   -0.028398
  27 H :   -0.029610
  28 H :   -0.026990
  29 H :   -0.032125
  30 H :   -0.029071
  31 H :   -0.027175
  32 H :   -0.025918
  33 H :    0.014866
  34 H :    0.000121
  35 H :    0.003836
  36 H :   -0.005884
  37 H :    0.039338
  38 H :    0.022484
  39 H :    0.019399
Sum of atomic charges:   -0.0000000

LOEWDIN ATOMIC CHARGES
----------------------
   0 C :   -0.037812
   1 C :   -0.002592
   2 C :   -0.020734
   3 C :   -0.003864
   4 C :   -0.018716
   5 C :   -0.004809
   6 C :   -0.017763
   7 C :   -0.003003
   8 C :   -0.026212
   9 C :   -0.009197
  10 C :   -0.024926
  11 C :   -0.003268
  12 C :   -0.024641
  13 C :    0.005710
  14 C :    0.001176
  15 C :    0.004302
  16 C :    0.025242
  17 C :   -0.083069
  18 C :   -0.028104
  19 C :    0.065354
  20 O :   -0.095739
  21 C :    0.081192
  22 N :    0.272353
  23 O :   -0.221702
  24 O :   -0.230290
  25 H :    0.029550
  26 H :    0.029523
  27 H :    0.029258
  28 H :    0.029274
  29 H :    0.023945
  30 H :    0.028821
  31 H :    0.030613
  32 H :    0.030558
  33 H :    0.037979
  34 H :    0.032230
  35 H :    0.027965
  36 H :    0.011848
  37 H :    0.029651
  38 H :    0.015395
  39 H :    0.014501

  Mayer bond orders larger than 0.100000
B(  0-C ,  1-C ) :   1.2966 B(  0-C , 13-C ) :   1.2478 B(  0-C , 16-C ) :   1.1117
B(  1-C ,  2-C ) :   1.4081 B(  1-C , 25-H ) :   0.9786 B(  2-C ,  3-C ) :   1.2600
B(  2-C , 26-H ) :   0.9883 B(  3-C ,  4-C ) :   1.1665 B(  3-C , 14-C ) :   1.2408
B(  4-C ,  5-C ) :   1.5278 B(  4-C , 27-H ) :   0.9853 B(  5-C ,  6-C ) :   1.1733
B(  5-C , 28-H ) :   0.9771 B(  6-C ,  7-C ) :   1.2683 B(  6-C , 15-C ) :   1.2317
B(  7-C ,  8-C ) :   1.3213 B(  7-C , 17-C ) :   1.0885 B(  8-C ,  9-C ) :   1.3823
B(  8-C , 29-H ) :   0.9766 B(  9-C , 10-C ) :   1.2777 B(  9-C , 30-H ) :   0.9873
B( 10-C , 11-C ) :   1.1587 B( 10-C , 15-C ) :   1.2420 B( 11-C , 12-C ) :   1.5373
B( 11-C , 31-H ) :   0.9837 B( 12-C , 13-C ) :   1.1732 B( 12-C , 32-H ) :   0.9796
B( 13-C , 14-C ) :   1.2354 B( 14-C , 15-C ) :   1.2293 B( 16-C , 18-C ) :   1.6368
B( 16-C , 33-H ) :   0.9448 B( 17-C , 19-C ) :   1.7148 B( 17-C , 34-H ) :   0.9507
B( 18-C , 22-N ) :   0.9431 B( 18-C , 35-H ) :   0.9833 B( 19-C , 20-O ) :   1.1453
B( 19-C , 36-H ) :   0.9530 B( 20-O , 21-C ) :   0.9550 B( 21-C , 37-H ) :   0.9811
B( 21-C , 38-H ) :   0.9694 B( 21-C , 39-H ) :   0.9671 B( 22-N , 23-O ) :   1.4914
B( 22-N , 24-O ) :   1.5162 B( 23-O , 24-O ) :   0.2716

FINAL SINGLE POINT ENERGY     -1088.171679777058

DIPOLE MOMENT
-------------
                                X             Y             Z
Electronic contribution:    -11.31429      20.14570      -3.17903
Nuclear contribution   :     13.39802     -23.31956       3.74645
                        -----------------------------------------
Total Dipole Moment    :      2.08373      -3.17386       0.56742
                        -----------------------------------------
Magnitude (a.u.)       :      3.83891
Magnitude (Debye)      :      9.75774

VIBRATIONAL FREQUENCIES
-----------------------

Scaling factor for frequencies =  1.000000000  (already applied!)

   0:         0.00 cm**-1
   1:         0.00 cm**-1
   2:         0.00 cm**-1
   3:         0.00 cm**-1
   4:         0.00 cm**-1
   5:         0.00 cm**-1
   6:        18.32 cm**-1
   7:        25.67 cm**-1
   8:        38.10 cm**-1
   9:        56.44 cm**-1
  10:        64.09 cm**-1
  11:        89.55 cm**-1
  12:        99.68 cm**-1
  13:       115.01 cm**-1
  14:       123.32 cm**-1
  15:       145.95 cm**-1
  16:       175.93 cm**-1
  17:       198.78 cm**-1
  18:       219.54 cm**-1
  19:       223.69 cm**-1
  20:       244.47 cm**-1
  21:       265.14 cm**-1
  22:       268.74 cm**-1
  23:       298.67 cm**-1
  24:       324.79 cm**-1
  25:       381.98 cm**-1
  26:       410.75 cm**-1
  27:       421.77 cm**-1
  28:       454.21 cm**-1
  29:       488.44 cm**-1
  30:       499.84 cm**-1
  31:       524.55 cm**-1
  32:       527.68 cm**-1
  33:       545.81 cm**-1
  34:       561.38 cm**-1
  35:       569.58 cm**-1
  36:       579.42 cm**-1
  37:       598.65 cm**-1
  38:       629.78 cm**-1
  39:       666.20 cm**-1
  40:       701.40 cm**-1
  41:       719.23 cm**-1
  42:       732.74 cm**-1
  43:       741.57 cm**-1
  44:       762.61 cm**-1
  45:       775.46 cm**-1
  46:       796.19 cm**-1
  47:       819.73 cm**-1
  48:       820.23 cm**-1
  49:       839.09 cm**-1
  50:       853.14 cm**-1
  51:       861.88 cm**-1
  52:       875.13 cm**-1
  53:       885.85 cm**-1
  54:       888.90 cm**-1
  55:       942.51 cm**-1
  56:       947.72 cm**-1
  57:       989.30 cm**-1
  58:       994.45 cm**-1
  59:       995.74 cm**-1
  60:       999.36 cm**-1
  61:      1011.06 cm**-1
  62:      1012.13 cm**-1
  63:      1016.25 cm**-1
  64:      1019.13 cm**-1
  65:      1045.60 cm**-1
  66:      1119.50 cm**-1
  67:      1131.73 cm**-1
  68:      1169.44 cm**-1
  69:      1171.00 cm**-1
  70:      1181.31 cm**-1
  71:      1188.27 cm**-1
  72:      1200.82 cm**-1
  73:      1209.25 cm**-1
  74:      1233.55 cm**-1
  75:      1250.00 cm**-1
  76:      1263.61 cm**-1
  77:      1270.11 cm**-1
  78:      1279.95 cm**-1
  79:      1294.30 cm**-1
  80:      1308.24 cm**-1
  81:      1322.14 cm**-1
  82:      1337.50 cm**-1
  83:      1366.27 cm**-1
  84:      1372.20 cm**-1
  85:      1398.79 cm**-1
  86:      1405.91 cm**-1
  87:      1409.32 cm**-1
  88:      1425.72 cm**-1
  89:      1442.16 cm**-1
  90:      1465.10 cm**-1
  91:      1466.85 cm**-1
  92:      1470.31 cm**-1
  93:      1474.81 cm**-1
  94:      1504.75 cm**-1
  95:      1536.00 cm**-1
  96:      1547.02 cm**-1
  97:      1573.46 cm**-1
  98:      1621.02 cm**-1
  99:      1629.55 cm**-1
 100:      1644.53 cm**-1
 101:      1659.22 cm**-1
 102:      1669.21 cm**-1
 103:      1694.97 cm**-1
 104:      1716.64 cm**-1
 105:      2997.21 cm**-1
 106:      3070.52 cm**-1
 107:      3134.89 cm**-1
 108:      3146.96 cm**-1
 109:      3171.82 cm**-1
 110:      3175.41 cm**-1
 111:      3175.47 cm**-1
 112:      3178.81 cm**-1
 113:      3187.36 cm**-1
 114:      3192.57 cm**-1
 115:      3199.20 cm**-1
 116:      3206.06 cm**-1
 117:      3216.67 cm**-1
 118:      3224.19 cm**-1
 119:      3253.94 cm**-1

IR SPECTRUM
-----------

 Mode   freq       eps      Int      T**2         TX        TY        TZ
       cm**-1   L/(mol*cm) km/mol    a.u.
----------------------------------------------------------------------------
  6:     18.32   0.000030    0.15  0.000518  (-0.002101  0.022234  0.004435)
  7:     25.67   0.000042    0.21  0.000506  (-0.004796  0.021844 -0.002316)
  8:     38.10   0.000850    4.30  0.006965  (-0.006564 -0.041039 -0.072372)
  9:     56.44   0.000145    0.73  0.000801  (-0.003392  0.021373  0.018253)
 10:     64.09   0.000230    1.16  0.001119  ( 0.016344  0.029136  0.001782)
 11:     89.55   0.000206    1.04  0.000717  (-0.017597 -0.020025 -0.002600)
 12:     99.68   0.000191    0.97  0.000598  (-0.003013  0.014573 -0.019410)
 13:    115.01   0.000166    0.84  0.000450  (-0.009173  0.017548 -0.007587)
 14:    123.32   0.000529    2.67  0.001339  (-0.005463  0.014459  0.033175)
 15:    145.95   0.000144    0.73  0.000309  ( 0.001512 -0.002568  0.017317)
 16:    175.93   0.000258    1.30  0.000457  ( 0.003873 -0.020505 -0.004694)
 17:    198.78   0.000117    0.59  0.000184  (-0.001328 -0.010019 -0.009042)
 18:    219.54   0.000592    2.99  0.000842  ( 0.000504  0.021524 -0.019459)
 19:    223.69   0.001142    5.77  0.001594  (-0.001215  0.010760  0.038423)
 20:    244.47   0.000219    1.11  0.000279  ( 0.007857  0.013911  0.004920)
 21:    265.14   0.000080    0.41  0.000095  (-0.006212  0.007421  0.000976)
 22:    268.74   0.000049    0.25  0.000057  (-0.006303  0.001554 -0.003790)
 23:    298.67   0.000582    2.94  0.000608  (-0.021484  0.011768 -0.002837)
 24:    324.79   0.001210    6.11  0.001162  ( 0.019453 -0.027588 -0.004753)
 25:    381.98   0.000255    1.29  0.000208  ( 0.011907 -0.007670 -0.002777)
 26:    410.75   0.002106   10.64  0.001600  (-0.027477  0.028424 -0.006079)
 27:    421.77   0.002114   10.68  0.001564  ( 0.023645 -0.031566  0.002901)
 28:    454.21   0.000490    2.48  0.000337  (-0.010936  0.014130  0.004204)
 29:    488.44   0.000654    3.31  0.000418  (-0.011326  0.016870 -0.002268)
 30:    499.84   0.000401    2.03  0.000251  (-0.006607  0.014349 -0.000996)
 31:    524.55   0.001196    6.05  0.000712  (-0.004644  0.026196 -0.001960)
 32:    527.68   0.000276    1.39  0.000163  ( 0.002192 -0.012581 -0.000050)
 33:    545.81   0.000514    2.60  0.000294  ( 0.014922 -0.008039  0.002532)
 34:    561.38   0.000973    4.92  0.000541  ( 0.005443 -0.005827 -0.021847)
 35:    569.58   0.000586    2.96  0.000321  ( 0.004769 -0.007540 -0.015530)
 36:    579.42   0.000915    4.63  0.000493  ( 0.006132 -0.021242  0.002042)
 37:    598.65   0.001626    8.21  0.000847  ( 0.016137 -0.024041 -0.003003)
 38:    629.78   0.000380    1.92  0.000188  (-0.008167  0.010944  0.001258)
 39:    666.20   0.000490    2.48  0.000229  ( 0.008548 -0.012255  0.002483)
 40:    701.40   0.000095    0.48  0.000042  ( 0.006158 -0.002079  0.000234)
 41:    719.23   0.001160    5.86  0.000503  (-0.003853  0.003758  0.021775)
 42:    732.74   0.000665    3.36  0.000283  ( 0.014655 -0.004938  0.006636)
 43:    741.57   0.000072    0.36  0.000030  (-0.003953 -0.001920  0.003289)
 44:    762.61   0.002855   14.43  0.001168  ( 0.004179 -0.001358 -0.033897)
 45:    775.46   0.002241   11.32  0.000902  ( 0.022556 -0.019490  0.003619)
 46:    796.19   0.003302   16.69  0.001294  ( 0.032180 -0.016078 -0.000533)
 47:    819.73   0.001071    5.41  0.000408  (-0.002237  0.019135  0.006043)
 48:    820.23   0.002879   14.55  0.001095  (-0.003491  0.032644 -0.004183)
 49:    839.09   0.002584   13.06  0.000961  (-0.001364  0.005004 -0.030561)
 50:    853.14   0.002422   12.24  0.000886  ( 0.000691  0.003929  0.029498)
 51:    861.88   0.000334    1.69  0.000121  ( 0.007316 -0.003528  0.007422)
 52:    875.13   0.002933   14.82  0.001046  (-0.003340  0.002843 -0.032042)
 53:    885.85   0.000892    4.51  0.000314  (-0.007874  0.006186 -0.014629)
 54:    888.90   0.008432   42.61  0.002960  ( 0.007230 -0.006316 -0.053555)
 55:    942.51   0.000331    1.68  0.000110  (-0.002087  0.002930 -0.009839)
 56:    947.72   0.009991   50.49  0.003290  (-0.024883  0.018861 -0.048115)
 57:    989.30   0.022845  115.45  0.007206  (-0.043891  0.072567 -0.003716)
 58:    994.45   0.003511   17.74  0.001102  ( 0.013269 -0.029031 -0.009108)
 59:    995.74   0.001963    9.92  0.000615  (-0.008307  0.019004 -0.013608)
 60:    999.36   0.001259    6.36  0.000393  (-0.011927  0.015729 -0.001887)
 61:   1011.06   0.017617   89.03  0.005437  (-0.039122  0.062368 -0.004116)
 62:   1012.13   0.001824    9.22  0.000562  ( 0.000866 -0.002695  0.023546)
 63:   1016.25   0.000489    2.47  0.000150  ( 0.002383 -0.000907  0.011987)
 64:   1019.13   0.000291    1.47  0.000089  (-0.002555  0.002159  0.008835)
 65:   1045.60   0.005536   27.98  0.001652  (-0.016974 -0.030537  0.020779)
 66:   1119.50   0.004667   23.58  0.001301  (-0.006444  0.034602 -0.007875)
 67:   1131.73   0.000092    0.47  0.000025  ( 0.001679 -0.004730  0.000496)
 68:   1169.44   0.003435   17.36  0.000917  ( 0.010294 -0.028437  0.001446)
 69:   1171.00   0.040562  204.98  0.010809  ( 0.043145 -0.091730  0.023101)
 70:   1181.31   0.002954   14.93  0.000780  (-0.011670  0.024394 -0.007006)
 71:   1188.27   0.001754    8.86  0.000461  ( 0.014840 -0.014981  0.003982)
 72:   1200.82   0.001993   10.07  0.000518  ( 0.002411 -0.022625 -0.000343)
 73:   1209.25   0.006123   30.94  0.001580  (-0.037109  0.013355 -0.004979)
 74:   1233.55   0.000573    2.90  0.000145  (-0.005379 -0.010184  0.003522)
 75:   1250.00   0.122511  619.12  0.030585  (-0.086659  0.150026 -0.023817)
 76:   1263.61   0.045310  228.98  0.011190  ( 0.050253 -0.092751  0.007849)
 77:   1270.11   0.008891   44.93  0.002185  (-0.020572  0.040886 -0.009472)
 78:   1279.95   0.017600   88.94  0.004291  (-0.035960  0.054751 -0.000496)
 79:   1294.30   0.094811  479.14  0.022859  (-0.081854  0.124339 -0.026445)
 80:   1308.24   0.022181  112.10  0.005291  (-0.037505  0.061055 -0.012523)
 81:   1322.14   0.000715    3.61  0.000169  ( 0.009431 -0.008880 -0.000966)
 82:   1337.50   0.001940    9.80  0.000453  ( 0.002460 -0.020838  0.003514)
 83:   1366.27   0.001602    8.10  0.000366  (-0.010214 -0.014783  0.006566)
 84:   1372.20   0.003392   17.14  0.000771  ( 0.020210 -0.019048 -0.000417)
 85:   1398.79   0.132137  667.76  0.029479  (-0.112090  0.129924 -0.005875)
 86:   1405.91   0.040590  205.12  0.009010  ( 0.065416 -0.068357  0.007589)
 87:   1409.32   0.043745  221.07  0.009686  (-0.060445  0.077022 -0.010025)
 88:   1425.72   0.004316   21.81  0.000945  ( 0.006051 -0.029953  0.003300)
 89:   1442.16   0.000010    0.05  0.000002  ( 0.001456 -0.000305  0.000103)
 90:   1465.10   0.001477    7.46  0.000315  (-0.005029  0.013116  0.010825)
 91:   1466.85   0.000845    4.27  0.000180  (-0.007917 -0.009324 -0.005494)
 92:   1470.31   0.000754    3.81  0.000160  ( 0.007059 -0.010048 -0.003026)
 93:   1474.81   0.018794   94.98  0.003977  (-0.037988  0.049290 -0.010206)
 94:   1504.75   0.000434    2.19  0.000090  ( 0.005690  0.007580  0.000466)
 95:   1536.00   0.000477    2.41  0.000097  (-0.009582 -0.002205 -0.000385)
 96:   1547.02   0.002526   12.77  0.000510  (-0.002842  0.022394  0.000199)
 97:   1573.46   0.004682   23.66  0.000929  (-0.020524  0.022268 -0.003402)
 98:   1621.02   0.002560   12.94  0.000493  (-0.004285  0.021675 -0.002144)
 99:   1629.55   0.051915  262.36  0.009942  ( 0.088789 -0.044938  0.006245)
100:   1644.53   0.024283  122.72  0.004608  (-0.008977  0.066920 -0.007003)
101:   1659.22   0.005534   27.96  0.001041  (-0.017527 -0.027077 -0.000630)
102:   1669.21   0.040327  203.80  0.007539  ( 0.018373 -0.084589  0.006809)
103:   1694.97   0.042518  214.87  0.007828  ( 0.011647 -0.087597  0.004389)
104:   1716.64   0.098518  497.87  0.017909  ( 0.063238 -0.115773  0.022513)
105:   2997.21   0.033347  168.52  0.003472  ( 0.013569 -0.054117  0.018955)
106:   3070.52   0.007098   35.87  0.000721  ( 0.009779  0.009373  0.023192)
107:   3134.89   0.001916    9.68  0.000191  ( 0.013248 -0.002050 -0.003326)
108:   3146.96   0.003614   18.26  0.000358  ( 0.016567 -0.008700 -0.002859)
109:   3171.82   0.000298    1.51  0.000029  (-0.004586  0.002854 -0.000374)
110:   3175.41   0.001728    8.73  0.000170  ( 0.013005 -0.000372  0.000725)
111:   3175.47   0.000995    5.03  0.000098  (-0.009861  0.000206 -0.000739)
112:   3178.81   0.002177   11.00  0.000214  ( 0.014511 -0.001634  0.000721)
113:   3187.36   0.001577    7.97  0.000154  ( 0.007334 -0.010018  0.000493)
114:   3192.57   0.003920   19.81  0.000383  (-0.004849 -0.018964 -0.000232)
115:   3199.20   0.002160   10.91  0.000211  ( 0.005237  0.013534 -0.000272)
116:   3206.06   0.000905    4.57  0.000088  (-0.008907 -0.002956 -0.000157)
117:   3216.67   0.002077   10.50  0.000201  ( 0.013805 -0.003243  0.000636)
118:   3224.19   0.000435    2.20  0.000042  ( 0.005811 -0.002848  0.000455)
119:   3253.94   0.003152   15.93  0.000302  ( 0.008617 -0.015062  0.001102)

--------------------------
THERMOCHEMISTRY AT 298.15K
--------------------------

Temperature         ... 298.15 K
Pressure            ... 1.00 atm
Total Mass          ... 329.35 AMU

Throughout the following assumptions are being made:
  (1) The electronic state is orbitally nondegenerate
  (2) There are no thermally accessible electronically excited states
  (3) Hindered rotations indicated by low frequency modes are not
      treated as such but are treated as vibrations and this may
      cause some error
  (4) All equations used are the standard statistical mechanics
      equations for an ideal gas
  (5) All vibrations are strictly harmonic

freq.      18.32  E(vib)   ...       0.57
freq.      25.67  E(vib)   ...       0.56
freq.      38.10  E(vib)   ...       0.54
freq.      56.44  E(vib)   ...       0.52
freq.      64.09  E(vib)   ...       0.51
freq.      89.55  E(vib)   ...       0.47
freq.      99.68  E(vib)   ...       0.46
freq.     115.01  E(vib)   ...       0.44
freq.     123.32  E(vib)   ...       0.43
freq.     145.95  E(vib)   ...       0.41
freq.     175.93  E(vib)   ...       0.38
freq.     198.78  E(vib)   ...       0.35
freq.     219.54  E(vib)   ...       0.33
freq.     223.69  E(vib)   ...       0.33
freq.     244.47  E(vib)   ...       0.31
freq.     265.14  E(vib)   ...       0.29
freq.     268.74  E(vib)   ...       0.29
freq.     298.67  E(vib)   ...       0.26
freq.     324.79  E(vib)   ...       0.24
freq.     381.98  E(vib)   ...       0.21
freq.     410.75  E(vib)   ...       0.19
freq.     421.77  E(vib)   ...       0.18
freq.     454.21  E(vib)   ...       0.16
freq.     488.44  E(vib)   ...       0.15
freq.     499.84  E(vib)   ...       0.14
freq.     524.55  E(vib)   ...       0.13
freq.     527.68  E(vib)   ...       0.13
freq.     545.81  E(vib)   ...       0.12
freq.     561.38  E(vib)   ...       0.11
freq.     569.58  E(vib)   ...       0.11
freq.     579.42  E(vib)   ...       0.11
freq.     598.65  E(vib)   ...       0.10
freq.     629.78  E(vib)   ...       0.09
freq.     666.20  E(vib)   ...       0.08
freq.     701.40  E(vib)   ...       0.07
freq.     719.23  E(vib)   ...       0.07
freq.     732.74  E(vib)   ...       0.06
freq.     741.57  E(vib)   ...       0.06
freq.     762.61  E(vib)   ...       0.06
freq.     775.46  E(vib)   ...       0.05
freq.     796.19  E(vib)   ...       0.05
freq.     819.73  E(vib)   ...       0.05
freq.     820.23  E(vib)   ...       0.05
freq.     839.09  E(vib)   ...       0.04
freq.     853.14  E(vib)   ...       0.04
freq.     861.88  E(vib)   ...       0.04
freq.     875.13  E(vib)   ...       0.04
freq.     885.85  E(vib)   ...       0.04
freq.     888.90  E(vib)   ...       0.04
freq.     942.51  E(vib)   ...       0.03
freq.     947.72  E(vib)   ...       0.03
freq.     989.30  E(vib)   ...       0.02
freq.     994.45  E(vib)   ...       0.02
freq.     995.74  E(vib)   ...       0.02
freq.     999.36  E(vib)   ...       0.02
freq.    1011.06  E(vib)   ...       0.02
freq.    1012.13  E(vib)   ...       0.02
freq.    1016.25  E(vib)   ...       0.02
freq.    1019.13  E(vib)   ...       0.02
freq.    1045.60  E(vib)   ...       0.02
freq.    1119.50  E(vib)   ...       0.01
freq.    1131.73  E(vib)   ...       0.01
freq.    1169.44  E(vib)   ...       0.01
freq.    1171.00  E(vib)   ...       0.01
freq.    1181.31  E(vib)   ...       0.01
freq.    1188.27  E(vib)   ...       0.01
freq.    1200.82  E(vib)   ...       0.01
freq.    1209.25  E(vib)   ...       0.01
freq.    1233.55  E(vib)   ...       0.01
freq.    1250.00  E(vib)   ...       0.01
freq.    1263.61  E(vib)   ...       0.01
freq.    1270.11  E(vib)   ...       0.01
freq.    1279.95  E(vib)   ...       0.01
freq.    1294.30  E(vib)   ...       0.01
freq.    1308.24  E(vib)   ...       0.01
freq.    1322.14  E(vib)   ...       0.01
freq.    1337.50  E(vib)   ...       0.01
freq.    1366.27  E(vib)   ...       0.01
freq.    1372.20  E(vib)   ...       0.01
freq.    1398.79  E(vib)   ...       0.00
freq.    1405.91  E(vib)   ...       0.00
freq.    1409.32  E(vib)   ...       0.00
freq.    1425.72  E(vib)   ...       0.00
freq.    1442.16  E(vib)   ...       0.00
freq.    1465.10  E(vib)   ...       0.00
freq.    1466.85  E(vib)   ...       0.00
freq.    1470.31  E(vib)   ...       0.00
freq.    1474.81  E(vib)   ...       0.00
freq.    1504.75  E(vib)   ...       0.00
freq.    1536.00  E(vib)   ...       0.00
freq.    1547.02  E(vib)   ...       0.00
freq.    1573.46  E(vib)   ...       0.00
freq.    1621.02  E(vib)   ...       0.00
freq.    1629.55  E(vib)   ...       0.00
freq.    1644.53  E(vib)   ...       0.00
freq.    1659.22  E(vib)   ...       0.00
freq.    1669.21  E(vib)   ...       0.00
freq.    1694.97  E(vib)   ...       0.00
freq.    1716.64  E(vib)   ...       0.00
freq.    2997.21  E(vib)   ...       0.00
freq.    3070.52  E(vib)   ...       0.00
freq.    3134.89  E(vib)   ...       0.00
freq.    3146.96  E(vib)   ...       0.00
freq.    3171.82  E(vib)   ...       0.00
freq.    3175.41  E(vib)   ...       0.00
freq.    3175.47  E(vib)   ...       0.00
freq.    3178.81  E(vib)   ...       0.00
freq.    3187.36  E(vib)   ...       0.00
freq.    3192.57  E(vib)   ...       0.00
freq.    3199.20  E(vib)   ...       0.00
freq.    3206.06  E(vib)   ...       0.00
freq.    3216.67  E(vib)   ...       0.00
freq.    3224.19  E(vib)   ...       0.00
freq.    3253.94  E(vib)   ...       0.00

------------
INNER ENERGY
------------

The inner energy is: U= E(el) + E(ZPE) + E(vib) + E(rot) + E(trans)
    E(el)   - is the total energy from the electronic structure calculation
              = E(kin-el) + E(nuc-el) + E(el-el) + E(nuc-nuc)
    E(ZPE)  - the the zero temperature vibrational energy from the frequency calculation
    E(vib)  - the the finite temperature correction to E(ZPE) due to population
              of excited vibrational states
    E(rot)  - is the rotational thermal energy
    E(trans)- is the translational thermal energy

Summary of contributions to the inner energy U:
Electronic energy                ...  -1088.17167978 Eh
Zero point energy                ...      0.30950722 Eh     194.22 kcal/mol
Thermal vibrational correction   ...      0.01742677 Eh      10.94 kcal/mol
Thermal rotational correction    ...      0.00141627 Eh       0.89 kcal/mol
Thermal translational correction ...      0.00141627 Eh       0.89 kcal/mol
-----------------------------------------------------------------------
Total thermal energy                  -1087.84191324 Eh

Summary of corrections to the electronic energy:
(perhaps to be used in another calculation)
Total thermal correction                  0.02025931 Eh      12.71 kcal/mol
Non-thermal (ZPE) correction              0.30950722 Eh     194.22 kcal/mol
-----------------------------------------------------------------------
Total correction                          0.32976653 Eh     206.93 kcal/mol

Rotational constants in cm-1:     0.024487     0.002761     0.002491

                             ****ORCA TERMINATED NORMALLY****
TOTAL RUN TIME: 0 days 0 hours 54 minutes 42 seconds 591 msec
